# Moment      
# CofR        : (0.000000e+00 0.000000e+00 0.000000e+00)
#
# Time        	(total_x total_y total_z)	(pressure_x pressure_y pressure_z)	(viscous_x viscous_y viscous_z)
1e-08         	(2.543783e-29 1.497533e-08 1.354792e-07)	(2.543783e-29 1.497533e-08 0.000000e+00)	(-5.338473e-38 2.266531e-17 1.354792e-07)
2e-08         	(5.282022e-29 3.106865e-08 5.698933e-07)	(5.282022e-29 3.106865e-08 0.000000e+00)	(-1.616841e-37 7.762947e-17 5.698933e-07)
3e-08         	(7.320219e-29 4.308891e-08 1.384694e-06)	(7.320219e-29 4.308891e-08 0.000000e+00)	(-2.959460e-37 1.532182e-16 1.384694e-06)
4e-08         	(9.035617e-29 5.319527e-08 2.553113e-06)	(9.035617e-29 5.319527e-08 0.000000e+00)	(-4.376773e-37 2.373807e-16 2.553113e-06)
5e-08         	(1.062963e-28 6.257210e-08 4.001886e-06)	(1.062963e-28 6.257210e-08 0.000000e+00)	(-5.782573e-37 3.231604e-16 4.001886e-06)
6e-08         	(1.215521e-28 7.154936e-08 5.635416e-06)	(1.215521e-28 7.154936e-08 0.000000e+00)	(-7.127208e-37 4.061438e-16 5.635416e-06)
7e-08         	(1.360422e-28 8.005734e-08 7.361070e-06)	(1.360422e-28 8.005734e-08 0.000000e+00)	(-8.379530e-37 4.835497e-16 7.361070e-06)
8e-08         	(1.499732e-28 8.827316e-08 9.101928e-06)	(1.499732e-28 8.827315e-08 0.000000e+00)	(-9.521748e-37 5.538824e-16 9.101928e-06)
9e-08         	(1.633689e-28 9.622868e-08 1.080062e-05)	(1.633689e-28 9.622868e-08 0.000000e+00)	(-1.054709e-36 6.165772e-16 1.080062e-05)
1e-07         	(1.756509e-28 1.034769e-07 1.241821e-05)	(1.756509e-28 1.034768e-07 0.000000e+00)	(-1.145656e-36 6.717401e-16 1.241821e-05)
1.1e-07       	(1.863926e-28 1.096844e-07 1.393101e-05)	(1.863926e-28 1.096844e-07 0.000000e+00)	(-1.225698e-36 7.198162e-16 1.393101e-05)
1.2e-07       	(1.968926e-28 1.158765e-07 1.532687e-05)	(1.968926e-28 1.158765e-07 0.000000e+00)	(-1.295689e-36 7.615477e-16 1.532687e-05)
1.3e-07       	(2.067765e-28 1.217547e-07 1.660190e-05)	(2.067765e-28 1.217547e-07 0.000000e+00)	(-1.356681e-36 7.976881e-16 1.660190e-05)
1.4e-07       	(2.152593e-28 1.266918e-07 1.775775e-05)	(2.152593e-28 1.266918e-07 0.000000e+00)	(-1.409785e-36 8.289331e-16 1.775775e-05)
1.5e-07       	(2.231231e-28 1.312979e-07 1.879956e-05)	(2.231231e-28 1.312979e-07 0.000000e+00)	(-1.455983e-36 8.559836e-16 1.879956e-05)
1.6e-07       	(2.306815e-28 1.358120e-07 1.973451e-05)	(2.306815e-28 1.358120e-07 0.000000e+00)	(-1.496156e-36 8.794699e-16 1.973451e-05)
1.7e-07       	(2.372113e-28 1.396527e-07 2.057083e-05)	(2.372113e-28 1.396527e-07 0.000000e+00)	(-1.531144e-36 8.998927e-16 2.057083e-05)
1.8e-07       	(2.429484e-28 1.429960e-07 2.131704e-05)	(2.429484e-28 1.429960e-07 0.000000e+00)	(-1.561676e-36 9.176788e-16 2.131704e-05)
1.9e-07       	(2.484070e-28 1.462380e-07 2.198150e-05)	(2.484070e-28 1.462380e-07 0.000000e+00)	(-1.588330e-36 9.332298e-16 2.198150e-05)
2e-07         	(2.536217e-28 1.493963e-07 2.257242e-05)	(2.536217e-28 1.493963e-07 0.000000e+00)	(-1.611628e-36 9.468585e-16 2.257242e-05)
2.1e-07       	(2.574262e-28 1.515398e-07 2.309736e-05)	(2.574262e-28 1.515398e-07 0.000000e+00)	(-1.632047e-36 9.588086e-16 2.309736e-05)
2.2e-07       	(2.612543e-28 1.537921e-07 2.356330e-05)	(2.612543e-28 1.537921e-07 0.000000e+00)	(-1.649940e-36 9.693262e-16 2.356330e-05)
2.3e-07       	(2.643368e-28 1.555373e-07 2.397660e-05)	(2.643368e-28 1.555373e-07 0.000000e+00)	(-1.665651e-36 9.785851e-16 2.397660e-05)
2.4e-07       	(2.674643e-28 1.573914e-07 2.434305e-05)	(2.674643e-28 1.573914e-07 0.000000e+00)	(-1.679431e-36 9.867687e-16 2.434305e-05)
2.5e-07       	(2.703535e-28 1.591242e-07 2.466782e-05)	(2.703535e-28 1.591242e-07 0.000000e+00)	(-1.691514e-36 9.940186e-16 2.466782e-05)
2.6e-07       	(2.727548e-28 1.605312e-07 2.495559e-05)	(2.727548e-28 1.605312e-07 0.000000e+00)	(-1.702137e-36 1.000427e-15 2.495559e-05)
2.7e-07       	(2.749230e-28 1.618075e-07 2.521050e-05)	(2.749230e-28 1.618075e-07 0.000000e+00)	(-1.711471e-36 1.006100e-15 2.521050e-05)
2.8e-07       	(2.768043e-28 1.629055e-07 2.543628e-05)	(2.768043e-28 1.629055e-07 0.000000e+00)	(-1.719667e-36 1.011132e-15 2.543628e-05)
2.9e-07       	(2.790139e-28 1.643055e-07 2.563624e-05)	(2.790139e-28 1.643055e-07 0.000000e+00)	(-1.726846e-36 1.015610e-15 2.563624e-05)
3e-07         	(2.800443e-28 1.648126e-07 2.581330e-05)	(2.800443e-28 1.648126e-07 0.000000e+00)	(-1.733168e-36 1.019565e-15 2.581330e-05)
3.1e-07       	(2.812975e-28 1.655296e-07 2.597008e-05)	(2.812975e-28 1.655296e-07 0.000000e+00)	(-1.738723e-36 1.023069e-15 2.597008e-05)
3.2e-07       	(2.827592e-28 1.664418e-07 2.610889e-05)	(2.827592e-28 1.664418e-07 0.000000e+00)	(-1.743574e-36 1.026195e-15 2.610889e-05)
3.3e-07       	(2.841039e-28 1.672891e-07 2.623179e-05)	(2.841039e-28 1.672891e-07 0.000000e+00)	(-1.747823e-36 1.028970e-15 2.623179e-05)
3.4e-07       	(2.852027e-28 1.679664e-07 2.634060e-05)	(2.852027e-28 1.679664e-07 0.000000e+00)	(-1.751531e-36 1.031445e-15 2.634060e-05)
3.5e-07       	(2.854772e-28 1.680139e-07 2.643693e-05)	(2.854772e-28 1.680139e-07 0.000000e+00)	(-1.754808e-36 1.033616e-15 2.643693e-05)
3.6e-07       	(2.866662e-28 1.688027e-07 2.652221e-05)	(2.866662e-28 1.688027e-07 0.000000e+00)	(-1.757652e-36 1.035560e-15 2.652221e-05)
3.7e-07       	(2.864097e-28 1.684671e-07 2.659770e-05)	(2.864097e-28 1.684671e-07 0.000000e+00)	(-1.760159e-36 1.037266e-15 2.659770e-05)
3.8e-07       	(2.879220e-28 1.695435e-07 2.666454e-05)	(2.879220e-28 1.695435e-07 0.000000e+00)	(-1.762304e-36 1.038815e-15 2.666454e-05)
3.9e-07       	(2.877196e-28 1.692789e-07 2.672371e-05)	(2.877196e-28 1.692789e-07 0.000000e+00)	(-1.764226e-36 1.040146e-15 2.672371e-05)
4e-07         	(2.885666e-28 1.698551e-07 2.677609e-05)	(2.885666e-28 1.698551e-07 0.000000e+00)	(-1.765863e-36 1.041359e-15 2.677609e-05)
4.1e-07       	(2.884855e-28 1.697089e-07 2.682246e-05)	(2.884855e-28 1.697089e-07 0.000000e+00)	(-1.767305e-36 1.042419e-15 2.682246e-05)
4.2e-07       	(2.893364e-28 1.703081e-07 2.686351e-05)	(2.893364e-28 1.703081e-07 0.000000e+00)	(-1.768532e-36 1.043380e-15 2.686351e-05)
4.3e-07       	(2.900024e-28 1.707697e-07 2.689985e-05)	(2.900024e-28 1.707697e-07 0.000000e+00)	(-1.769592e-36 1.044236e-15 2.689985e-05)
4.4e-07       	(2.898327e-28 1.705785e-07 2.693202e-05)	(2.898327e-28 1.705785e-07 0.000000e+00)	(-1.770535e-36 1.044976e-15 2.693202e-05)
4.5e-07       	(2.906172e-28 1.711476e-07 2.696050e-05)	(2.906172e-28 1.711476e-07 0.000000e+00)	(-1.771320e-36 1.045656e-15 2.696050e-05)
4.6e-07       	(2.906725e-28 1.711465e-07 2.698571e-05)	(2.906725e-28 1.711465e-07 0.000000e+00)	(-1.772020e-36 1.046242e-15 2.698571e-05)
4.7e-07       	(2.906103e-28 1.710574e-07 2.700802e-05)	(2.906103e-28 1.710574e-07 0.000000e+00)	(-1.772640e-36 1.046749e-15 2.700802e-05)
4.8e-07       	(2.902509e-28 1.707385e-07 2.702778e-05)	(2.902510e-28 1.707385e-07 0.000000e+00)	(-1.773173e-36 1.047199e-15 2.702778e-05)
4.9e-07       	(2.910840e-28 1.713652e-07 2.704527e-05)	(2.910840e-28 1.713652e-07 0.000000e+00)	(-1.773603e-36 1.047622e-15 2.704527e-05)
5e-07         	(2.912879e-28 1.714987e-07 2.706070e-05)	(2.912879e-28 1.714987e-07 0.000000e+00)	(-1.773972e-36 1.047997e-15 2.706070e-05)
5.1e-07       	(2.912320e-28 1.714302e-07 2.707436e-05)	(2.912320e-28 1.714302e-07 0.000000e+00)	(-1.774299e-36 1.048319e-15 2.707436e-05)
5.2e-07       	(2.911439e-28 1.713391e-07 2.708646e-05)	(2.911439e-28 1.713390e-07 0.000000e+00)	(-1.774580e-36 1.048603e-15 2.708646e-05)
5.3e-07       	(2.915122e-28 1.716108e-07 2.709717e-05)	(2.915122e-28 1.716108e-07 0.000000e+00)	(-1.774811e-36 1.048862e-15 2.709717e-05)
5.4e-07       	(2.919111e-28 1.719090e-07 2.710667e-05)	(2.919111e-28 1.719090e-07 0.000000e+00)	(-1.774998e-36 1.049100e-15 2.710667e-05)
5.5e-07       	(2.917664e-28 1.717796e-07 2.711505e-05)	(2.917664e-28 1.717796e-07 0.000000e+00)	(-1.775189e-36 1.049284e-15 2.711505e-05)
5.6e-07       	(2.915600e-28 1.716035e-07 2.712248e-05)	(2.915600e-28 1.716035e-07 0.000000e+00)	(-1.775343e-36 1.049453e-15 2.712248e-05)
5.7e-07       	(2.922803e-28 1.721609e-07 2.712907e-05)	(2.922803e-28 1.721609e-07 0.000000e+00)	(-1.775437e-36 1.049634e-15 2.712907e-05)
5.8e-07       	(2.911451e-28 1.712535e-07 2.713491e-05)	(2.911451e-28 1.712535e-07 0.000000e+00)	(-1.775582e-36 1.049739e-15 2.713491e-05)
5.9e-07       	(2.919698e-28 1.718956e-07 2.714008e-05)	(2.919698e-28 1.718956e-07 0.000000e+00)	(-1.775655e-36 1.049874e-15 2.714008e-05)
6e-07         	(2.917689e-28 1.717288e-07 2.714466e-05)	(2.917689e-28 1.717288e-07 0.000000e+00)	(-1.775735e-36 1.049978e-15 2.714466e-05)
6.1e-07       	(2.917329e-28 1.716932e-07 2.714872e-05)	(2.917329e-28 1.716932e-07 0.000000e+00)	(-1.775794e-36 1.050076e-15 2.714872e-05)
6.2e-07       	(2.919339e-28 1.718454e-07 2.715231e-05)	(2.919339e-28 1.718454e-07 0.000000e+00)	(-1.775843e-36 1.050163e-15 2.715231e-05)
6.3e-07       	(2.921017e-28 1.719723e-07 2.715550e-05)	(2.921017e-28 1.719723e-07 0.000000e+00)	(-1.775874e-36 1.050248e-15 2.715550e-05)
6.4e-07       	(2.924105e-28 1.722113e-07 2.715832e-05)	(2.924105e-28 1.722113e-07 0.000000e+00)	(-1.775897e-36 1.050325e-15 2.715832e-05)
6.5e-07       	(2.916916e-28 1.716390e-07 2.716082e-05)	(2.916916e-28 1.716390e-07 0.000000e+00)	(-1.775944e-36 1.050369e-15 2.716082e-05)
6.6e-07       	(2.918278e-28 1.717426e-07 2.716303e-05)	(2.918278e-28 1.717426e-07 0.000000e+00)	(-1.775968e-36 1.050421e-15 2.716303e-05)
6.7e-07       	(2.922150e-28 1.720450e-07 2.716499e-05)	(2.922150e-28 1.720450e-07 0.000000e+00)	(-1.775971e-36 1.050480e-15 2.716499e-05)
6.8e-07       	(2.923309e-28 1.721334e-07 2.716673e-05)	(2.923309e-28 1.721334e-07 0.000000e+00)	(-1.775978e-36 1.050527e-15 2.716673e-05)
6.9e-07       	(2.921584e-28 1.719945e-07 2.716827e-05)	(2.921584e-28 1.719945e-07 0.000000e+00)	(-1.775995e-36 1.050560e-15 2.716827e-05)
7e-07         	(2.919000e-28 1.717879e-07 2.716963e-05)	(2.919000e-28 1.717879e-07 0.000000e+00)	(-1.776021e-36 1.050578e-15 2.716963e-05)
7.1e-07       	(2.920362e-28 1.718932e-07 2.717084e-05)	(2.920362e-28 1.718932e-07 0.000000e+00)	(-1.776027e-36 1.050607e-15 2.717084e-05)
7.2e-07       	(2.927710e-28 1.724719e-07 2.717191e-05)	(2.927710e-28 1.724719e-07 0.000000e+00)	(-1.776002e-36 1.050656e-15 2.717191e-05)
7.3e-07       	(2.914817e-28 1.714519e-07 2.717283e-05)	(2.914817e-28 1.714519e-07 0.000000e+00)	(-1.776044e-36 1.050648e-15 2.717283e-05)
7.4e-07       	(2.926078e-28 1.723398e-07 2.717365e-05)	(2.926078e-28 1.723398e-07 0.000000e+00)	(-1.776020e-36 1.050688e-15 2.717365e-05)
7.5e-07       	(2.920104e-28 1.718667e-07 2.717439e-05)	(2.920104e-28 1.718667e-07 0.000000e+00)	(-1.776032e-36 1.050697e-15 2.717439e-05)
7.6e-07       	(2.921110e-28 1.719448e-07 2.717504e-05)	(2.921110e-28 1.719448e-07 0.000000e+00)	(-1.776033e-36 1.050712e-15 2.717504e-05)
7.7e-07       	(2.914851e-28 1.714495e-07 2.717562e-05)	(2.914851e-28 1.714495e-07 0.000000e+00)	(-1.776044e-36 1.050717e-15 2.717562e-05)
7.8e-07       	(2.921786e-28 1.719962e-07 2.717613e-05)	(2.921786e-28 1.719962e-07 0.000000e+00)	(-1.776036e-36 1.050735e-15 2.717613e-05)
7.9e-07       	(2.922633e-28 1.720623e-07 2.717659e-05)	(2.922633e-28 1.720623e-07 0.000000e+00)	(-1.776029e-36 1.050751e-15 2.717659e-05)
8e-07         	(2.930333e-28 1.726699e-07 2.717700e-05)	(2.930333e-28 1.726699e-07 0.000000e+00)	(-1.775990e-36 1.050791e-15 2.717700e-05)
8.1e-07       	(2.916575e-28 1.715825e-07 2.717736e-05)	(2.916575e-28 1.715825e-07 0.000000e+00)	(-1.776032e-36 1.050764e-15 2.717736e-05)
8.2e-07       	(2.923013e-28 1.720906e-07 2.717768e-05)	(2.923013e-28 1.720906e-07 0.000000e+00)	(-1.776015e-36 1.050784e-15 2.717768e-05)
8.3e-07       	(2.923504e-28 1.721288e-07 2.717796e-05)	(2.923504e-28 1.721288e-07 0.000000e+00)	(-1.776015e-36 1.050789e-15 2.717796e-05)
8.4e-07       	(2.929059e-28 1.725672e-07 2.717821e-05)	(2.929059e-28 1.725672e-07 0.000000e+00)	(-1.775991e-36 1.050813e-15 2.717821e-05)
8.5e-07       	(2.921745e-28 1.719890e-07 2.717844e-05)	(2.921745e-28 1.719890e-07 0.000000e+00)	(-1.776014e-36 1.050799e-15 2.717844e-05)
8.6e-07       	(2.918616e-28 1.717414e-07 2.717864e-05)	(2.918616e-28 1.717414e-07 0.000000e+00)	(-1.776032e-36 1.050788e-15 2.717864e-05)
8.7e-07       	(2.922462e-28 1.720450e-07 2.717881e-05)	(2.922462e-28 1.720450e-07 0.000000e+00)	(-1.776010e-36 1.050808e-15 2.717881e-05)
8.8e-07       	(2.918670e-28 1.717449e-07 2.717897e-05)	(2.918670e-28 1.717449e-07 0.000000e+00)	(-1.776032e-36 1.050792e-15 2.717897e-05)
8.9e-07       	(2.922606e-28 1.720558e-07 2.717911e-05)	(2.922606e-28 1.720558e-07 0.000000e+00)	(-1.776011e-36 1.050811e-15 2.717911e-05)
9e-07         	(2.918780e-28 1.717533e-07 2.717923e-05)	(2.918780e-28 1.717533e-07 0.000000e+00)	(-1.776017e-36 1.050808e-15 2.717923e-05)
9.1e-07       	(2.921694e-28 1.719834e-07 2.717934e-05)	(2.921694e-28 1.719834e-07 0.000000e+00)	(-1.776010e-36 1.050815e-15 2.717934e-05)
9.2e-07       	(2.917976e-28 1.716894e-07 2.717944e-05)	(2.917976e-28 1.716894e-07 0.000000e+00)	(-1.776026e-36 1.050803e-15 2.717944e-05)
9.3e-07       	(2.925943e-28 1.723186e-07 2.717952e-05)	(2.925943e-28 1.723186e-07 0.000000e+00)	(-1.775997e-36 1.050828e-15 2.717952e-05)
9.4e-07       	(2.921539e-28 1.719706e-07 2.717960e-05)	(2.921539e-28 1.719706e-07 0.000000e+00)	(-1.776009e-36 1.050818e-15 2.717960e-05)
9.5e-07       	(2.925560e-28 1.722882e-07 2.717967e-05)	(2.925560e-28 1.722882e-07 0.000000e+00)	(-1.775989e-36 1.050835e-15 2.717967e-05)
9.6e-07       	(2.916666e-28 1.715855e-07 2.717973e-05)	(2.916666e-28 1.715855e-07 0.000000e+00)	(-1.776010e-36 1.050819e-15 2.717973e-05)
9.7e-07       	(2.917339e-28 1.716385e-07 2.717978e-05)	(2.917339e-28 1.716385e-07 0.000000e+00)	(-1.776012e-36 1.050818e-15 2.717978e-05)
9.8e-07       	(2.923613e-28 1.721340e-07 2.717983e-05)	(2.923614e-28 1.721340e-07 0.000000e+00)	(-1.775995e-36 1.050831e-15 2.717983e-05)
9.9e-07       	(2.917248e-28 1.716311e-07 2.717987e-05)	(2.917248e-28 1.716311e-07 0.000000e+00)	(-1.776014e-36 1.050817e-15 2.717987e-05)
1e-06         	(2.916335e-28 1.715590e-07 2.717990e-05)	(2.916335e-28 1.715590e-07 0.000000e+00)	(-1.776013e-36 1.050817e-15 2.717990e-05)
1.01e-06      	(2.920709e-28 1.719043e-07 2.717994e-05)	(2.920709e-28 1.719043e-07 0.000000e+00)	(-1.776012e-36 1.050819e-15 2.717994e-05)
1.02e-06      	(2.925898e-28 1.723143e-07 2.717997e-05)	(2.925898e-28 1.723143e-07 0.000000e+00)	(-1.775987e-36 1.050839e-15 2.717997e-05)
1.03e-06      	(2.915395e-28 1.714844e-07 2.717999e-05)	(2.915396e-28 1.714844e-07 0.000000e+00)	(-1.776020e-36 1.050812e-15 2.717999e-05)
1.04e-06      	(2.924111e-28 1.721731e-07 2.718002e-05)	(2.924111e-28 1.721731e-07 0.000000e+00)	(-1.775982e-36 1.050843e-15 2.718002e-05)
1.05e-06      	(2.923237e-28 1.721040e-07 2.718004e-05)	(2.923237e-28 1.721040e-07 0.000000e+00)	(-1.775983e-36 1.050843e-15 2.718004e-05)
1.06e-06      	(2.921404e-28 1.719590e-07 2.718006e-05)	(2.921404e-28 1.719590e-07 0.000000e+00)	(-1.775998e-36 1.050831e-15 2.718006e-05)
1.07e-06      	(2.921370e-28 1.719562e-07 2.718007e-05)	(2.921370e-28 1.719562e-07 0.000000e+00)	(-1.776003e-36 1.050826e-15 2.718007e-05)
1.08e-06      	(2.929039e-28 1.725623e-07 2.718009e-05)	(2.929039e-28 1.725623e-07 0.000000e+00)	(-1.775967e-36 1.050856e-15 2.718009e-05)
1.09e-06      	(2.920962e-28 1.719242e-07 2.718010e-05)	(2.920962e-28 1.719242e-07 0.000000e+00)	(-1.775989e-36 1.050838e-15 2.718010e-05)
1.1e-06       	(2.926226e-28 1.723397e-07 2.718011e-05)	(2.926226e-28 1.723397e-07 0.000000e+00)	(-1.775989e-36 1.050838e-15 2.718011e-05)
1.11e-06      	(2.918233e-28 1.717086e-07 2.718012e-05)	(2.918233e-28 1.717086e-07 0.000000e+00)	(-1.776000e-36 1.050829e-15 2.718012e-05)
1.12e-06      	(2.926260e-28 1.723428e-07 2.718013e-05)	(2.926260e-28 1.723428e-07 0.000000e+00)	(-1.775973e-36 1.050850e-15 2.718013e-05)
1.13e-06      	(2.921706e-28 1.719829e-07 2.718014e-05)	(2.921706e-28 1.719829e-07 0.000000e+00)	(-1.775987e-36 1.050839e-15 2.718014e-05)
1.14e-06      	(2.921252e-28 1.719469e-07 2.718014e-05)	(2.921252e-28 1.719469e-07 0.000000e+00)	(-1.775995e-36 1.050833e-15 2.718014e-05)
1.15e-06      	(2.922613e-28 1.720544e-07 2.718015e-05)	(2.922613e-28 1.720544e-07 0.000000e+00)	(-1.775995e-36 1.050832e-15 2.718015e-05)
1.16e-06      	(2.919192e-28 1.717842e-07 2.718015e-05)	(2.919192e-28 1.717842e-07 0.000000e+00)	(-1.775999e-36 1.050829e-15 2.718015e-05)
1.17e-06      	(2.923682e-28 1.721388e-07 2.718016e-05)	(2.923682e-28 1.721388e-07 0.000000e+00)	(-1.775980e-36 1.050844e-15 2.718016e-05)
1.18e-06      	(2.923887e-28 1.721552e-07 2.718016e-05)	(2.923887e-28 1.721552e-07 0.000000e+00)	(-1.775971e-36 1.050852e-15 2.718016e-05)
1.19e-06      	(2.918269e-28 1.717113e-07 2.718017e-05)	(2.918269e-28 1.717113e-07 0.000000e+00)	(-1.775992e-36 1.050835e-15 2.718017e-05)
1.2e-06       	(2.924271e-28 1.721855e-07 2.718017e-05)	(2.924271e-28 1.721855e-07 0.000000e+00)	(-1.775976e-36 1.050848e-15 2.718017e-05)
1.21e-06      	(2.920718e-28 1.719048e-07 2.718017e-05)	(2.920718e-28 1.719048e-07 0.000000e+00)	(-1.775989e-36 1.050837e-15 2.718017e-05)
1.22e-06      	(2.924924e-28 1.722370e-07 2.718018e-05)	(2.924924e-28 1.722370e-07 0.000000e+00)	(-1.775976e-36 1.050848e-15 2.718018e-05)
1.23e-06      	(2.919963e-28 1.718450e-07 2.718018e-05)	(2.919963e-28 1.718450e-07 0.000000e+00)	(-1.775993e-36 1.050834e-15 2.718018e-05)
1.24e-06      	(2.921057e-28 1.719315e-07 2.718018e-05)	(2.921057e-28 1.719315e-07 0.000000e+00)	(-1.775989e-36 1.050838e-15 2.718018e-05)
1.25e-06      	(2.920344e-28 1.718752e-07 2.718018e-05)	(2.920344e-28 1.718752e-07 0.000000e+00)	(-1.775988e-36 1.050838e-15 2.718018e-05)
1.26e-06      	(2.924739e-28 1.722224e-07 2.718019e-05)	(2.924739e-28 1.722224e-07 0.000000e+00)	(-1.775979e-36 1.050845e-15 2.718019e-05)
1.27e-06      	(2.922849e-28 1.720732e-07 2.718019e-05)	(2.922849e-28 1.720732e-07 0.000000e+00)	(-1.775979e-36 1.050845e-15 2.718019e-05)
1.28e-06      	(2.920869e-28 1.719165e-07 2.718019e-05)	(2.920869e-28 1.719165e-07 0.000000e+00)	(-1.775999e-36 1.050829e-15 2.718019e-05)
1.29e-06      	(2.924855e-28 1.722314e-07 2.718019e-05)	(2.924855e-28 1.722314e-07 0.000000e+00)	(-1.775984e-36 1.050841e-15 2.718019e-05)
1.3e-06       	(2.923118e-28 1.720942e-07 2.718019e-05)	(2.923118e-28 1.720942e-07 0.000000e+00)	(-1.775982e-36 1.050843e-15 2.718019e-05)
1.31e-06      	(2.919075e-28 1.717749e-07 2.718019e-05)	(2.919075e-28 1.717749e-07 0.000000e+00)	(-1.775999e-36 1.050829e-15 2.718019e-05)
1.32e-06      	(2.925605e-28 1.722907e-07 2.718019e-05)	(2.925605e-28 1.722907e-07 0.000000e+00)	(-1.775979e-36 1.050845e-15 2.718019e-05)
1.33e-06      	(2.921247e-28 1.719465e-07 2.718019e-05)	(2.921247e-28 1.719465e-07 0.000000e+00)	(-1.775985e-36 1.050841e-15 2.718019e-05)
1.34e-06      	(2.918213e-28 1.717069e-07 2.718019e-05)	(2.918213e-28 1.717069e-07 0.000000e+00)	(-1.775996e-36 1.050831e-15 2.718019e-05)
1.35e-06      	(2.927821e-28 1.724658e-07 2.718019e-05)	(2.927821e-28 1.724658e-07 0.000000e+00)	(-1.775964e-36 1.050857e-15 2.718019e-05)
1.36e-06      	(2.915984e-28 1.715306e-07 2.718019e-05)	(2.915984e-28 1.715306e-07 0.000000e+00)	(-1.776001e-36 1.050827e-15 2.718019e-05)
1.37e-06      	(2.919156e-28 1.717813e-07 2.718019e-05)	(2.919156e-28 1.717813e-07 0.000000e+00)	(-1.775997e-36 1.050831e-15 2.718019e-05)
1.38e-06      	(2.924916e-28 1.722363e-07 2.718020e-05)	(2.924916e-28 1.722363e-07 0.000000e+00)	(-1.775976e-36 1.050848e-15 2.718020e-05)
1.39e-06      	(2.919680e-28 1.718227e-07 2.718020e-05)	(2.919681e-28 1.718227e-07 0.000000e+00)	(-1.775993e-36 1.050834e-15 2.718020e-05)
1.4e-06       	(2.921613e-28 1.719753e-07 2.718020e-05)	(2.921613e-28 1.719753e-07 0.000000e+00)	(-1.775986e-36 1.050840e-15 2.718020e-05)
