# Moment      
# CofR        : (0.000000e+00 0.000000e+00 0.000000e+00)
#
# Time        	(total_x total_y total_z)	(pressure_x pressure_y pressure_z)	(viscous_x viscous_y viscous_z)
1e-08         	(1.279113e-29 7.530713e-09 9.111154e-09)	(1.279113e-29 7.530713e-09 0.000000e+00)	(-3.190346e-38 1.507980e-17 9.111154e-09)
2e-08         	(3.102896e-29 1.826068e-08 4.542985e-08)	(3.102896e-29 1.826068e-08 0.000000e+00)	(-1.050761e-37 5.356407e-17 4.542985e-08)
3e-08         	(4.569637e-29 2.690470e-08 1.299304e-07)	(4.569637e-29 2.690470e-08 0.000000e+00)	(-2.036532e-37 1.097926e-16 1.299304e-07)
4e-08         	(5.717521e-29 3.365789e-08 2.808542e-07)	(5.717521e-29 3.365789e-08 0.000000e+00)	(-3.153247e-37 1.768305e-16 2.808542e-07)
5e-08         	(6.682615e-29 3.932446e-08 5.102816e-07)	(6.682615e-29 3.932446e-08 0.000000e+00)	(-4.336683e-37 2.503642e-16 5.102816e-07)
6e-08         	(7.588162e-29 4.469877e-08 8.230903e-07)	(7.588162e-29 4.469877e-08 0.000000e+00)	(-5.555693e-37 3.278833e-16 8.230903e-07)
7e-08         	(8.417738e-29 4.955814e-08 1.217590e-06)	(8.417738e-29 4.955814e-08 0.000000e+00)	(-6.793291e-37 4.076731e-16 1.217590e-06)
8e-08         	(9.227404e-29 5.430401e-08 1.687009e-06)	(9.227404e-29 5.430400e-08 0.000000e+00)	(-8.036614e-37 4.884239e-16 1.687009e-06)
9e-08         	(1.005422e-28 5.921343e-08 2.221222e-06)	(1.005422e-28 5.921343e-08 0.000000e+00)	(-9.273878e-37 5.690212e-16 2.221222e-06)
1e-07         	(1.082205e-28 6.368075e-08 2.808323e-06)	(1.082205e-28 6.368075e-08 0.000000e+00)	(-1.049492e-36 6.484513e-16 2.808323e-06)
1.1e-07       	(1.161715e-28 6.838937e-08 3.435895e-06)	(1.161715e-28 6.838937e-08 0.000000e+00)	(-1.168942e-36 7.259292e-16 3.435895e-06)
1.2e-07       	(1.240503e-28 7.306996e-08 4.091919e-06)	(1.240503e-28 7.306995e-08 0.000000e+00)	(-1.284883e-36 8.008020e-16 4.091919e-06)
1.3e-07       	(1.309911e-28 7.704166e-08 4.765359e-06)	(1.309911e-28 7.704166e-08 0.000000e+00)	(-1.396686e-36 8.725278e-16 4.765359e-06)
1.4e-07       	(1.384979e-28 8.149703e-08 5.446489e-06)	(1.384979e-28 8.149703e-08 0.000000e+00)	(-1.503711e-36 9.408558e-16 5.446489e-06)
1.5e-07       	(1.460530e-28 8.603000e-08 6.127023e-06)	(1.460530e-28 8.603000e-08 0.000000e+00)	(-1.605573e-36 1.005600e-15 6.127023e-06)
1.6e-07       	(1.524116e-28 8.965937e-08 6.800109e-06)	(1.524116e-28 8.965937e-08 0.000000e+00)	(-1.702117e-36 1.066608e-15 6.800109e-06)
1.7e-07       	(1.597492e-28 9.410670e-08 7.460245e-06)	(1.597492e-28 9.410670e-08 0.000000e+00)	(-1.793104e-36 1.123990e-15 7.460245e-06)
1.8e-07       	(1.656530e-28 9.746632e-08 8.103146e-06)	(1.656530e-28 9.746632e-08 0.000000e+00)	(-1.878646e-36 1.177722e-15 8.103146e-06)
1.9e-07       	(1.721556e-28 1.013460e-07 8.725590e-06)	(1.721556e-28 1.013460e-07 0.000000e+00)	(-1.958722e-36 1.228009e-15 8.725590e-06)
2e-07         	(1.782548e-28 1.049545e-07 9.325260e-06)	(1.782548e-28 1.049545e-07 0.000000e+00)	(-2.033488e-36 1.274984e-15 9.325260e-06)
2.1e-07       	(1.838108e-28 1.081815e-07 9.900596e-06)	(1.838108e-28 1.081815e-07 0.000000e+00)	(-2.103138e-36 1.318813e-15 9.900596e-06)
2.2e-07       	(1.894647e-28 1.115338e-07 1.045066e-05)	(1.894647e-28 1.115338e-07 0.000000e+00)	(-2.167860e-36 1.359702e-15 1.045066e-05)
2.3e-07       	(1.951235e-28 1.149375e-07 1.097501e-05)	(1.951235e-28 1.149375e-07 0.000000e+00)	(-2.227880e-36 1.397847e-15 1.097501e-05)
2.4e-07       	(1.995810e-28 1.174386e-07 1.147360e-05)	(1.995810e-28 1.174386e-07 0.000000e+00)	(-2.283515e-36 1.433377e-15 1.147360e-05)
2.5e-07       	(2.046962e-28 1.205060e-07 1.194670e-05)	(2.046962e-28 1.205060e-07 0.000000e+00)	(-2.334918e-36 1.466545e-15 1.194670e-05)
2.6e-07       	(2.092916e-28 1.232079e-07 1.239481e-05)	(2.092916e-28 1.232079e-07 0.000000e+00)	(-2.382394e-36 1.497478e-15 1.239481e-05)
2.7e-07       	(2.137682e-28 1.258599e-07 1.281861e-05)	(2.137682e-28 1.258599e-07 0.000000e+00)	(-2.426188e-36 1.526342e-15 1.281861e-05)
2.8e-07       	(2.177397e-28 1.281558e-07 1.321890e-05)	(2.177398e-28 1.281558e-07 0.000000e+00)	(-2.466546e-36 1.553279e-15 1.321890e-05)
2.9e-07       	(2.216749e-28 1.304648e-07 1.359657e-05)	(2.216749e-28 1.304648e-07 0.000000e+00)	(-2.503666e-36 1.578453e-15 1.359657e-05)
3e-07         	(2.260495e-28 1.331617e-07 1.395257e-05)	(2.260495e-28 1.331617e-07 0.000000e+00)	(-2.537748e-36 1.602011e-15 1.395257e-05)
3.1e-07       	(2.289409e-28 1.347251e-07 1.428788e-05)	(2.289410e-28 1.347251e-07 0.000000e+00)	(-2.569096e-36 1.623990e-15 1.428788e-05)
3.2e-07       	(2.324103e-28 1.367828e-07 1.460349e-05)	(2.324103e-28 1.367828e-07 0.000000e+00)	(-2.597826e-36 1.644570e-15 1.460349e-05)
3.3e-07       	(2.358504e-28 1.388535e-07 1.490039e-05)	(2.358504e-28 1.388535e-07 0.000000e+00)	(-2.624130e-36 1.663842e-15 1.490039e-05)
3.4e-07       	(2.388616e-28 1.406198e-07 1.517954e-05)	(2.388616e-28 1.406198e-07 0.000000e+00)	(-2.648210e-36 1.681880e-15 1.517954e-05)
3.5e-07       	(2.417607e-28 1.423307e-07 1.544191e-05)	(2.417607e-28 1.423306e-07 0.000000e+00)	(-2.670215e-36 1.698777e-15 1.544191e-05)
3.6e-07       	(2.444468e-28 1.439047e-07 1.568841e-05)	(2.444468e-28 1.439047e-07 0.000000e+00)	(-2.690308e-36 1.714606e-15 1.568841e-05)
3.7e-07       	(2.470881e-28 1.454737e-07 1.591994e-05)	(2.470882e-28 1.454737e-07 0.000000e+00)	(-2.708626e-36 1.729444e-15 1.591994e-05)
3.8e-07       	(2.492603e-28 1.467004e-07 1.613734e-05)	(2.492603e-28 1.467004e-07 0.000000e+00)	(-2.725330e-36 1.743332e-15 1.613734e-05)
3.9e-07       	(2.515355e-28 1.480362e-07 1.634144e-05)	(2.515355e-28 1.480362e-07 0.000000e+00)	(-2.740496e-36 1.756375e-15 1.634144e-05)
4e-07         	(2.540066e-28 1.495528e-07 1.653301e-05)	(2.540066e-28 1.495528e-07 0.000000e+00)	(-2.754250e-36 1.768620e-15 1.653301e-05)
4.1e-07       	(2.559757e-28 1.506978e-07 1.671280e-05)	(2.559757e-28 1.506978e-07 0.000000e+00)	(-2.766721e-36 1.780102e-15 1.671280e-05)
4.2e-07       	(2.577718e-28 1.517292e-07 1.688150e-05)	(2.577718e-28 1.517292e-07 0.000000e+00)	(-2.778020e-36 1.790862e-15 1.688150e-05)
4.3e-07       	(2.595918e-28 1.528020e-07 1.703978e-05)	(2.595918e-28 1.528020e-07 0.000000e+00)	(-2.788220e-36 1.800961e-15 1.703978e-05)
4.4e-07       	(2.612341e-28 1.537552e-07 1.718827e-05)	(2.612341e-28 1.537552e-07 0.000000e+00)	(-2.797421e-36 1.810432e-15 1.718827e-05)
4.5e-07       	(2.630587e-28 1.548729e-07 1.732757e-05)	(2.630587e-28 1.548729e-07 0.000000e+00)	(-2.805667e-36 1.819343e-15 1.732757e-05)
4.6e-07       	(2.644802e-28 1.556909e-07 1.745823e-05)	(2.644802e-28 1.556909e-07 0.000000e+00)	(-2.813076e-36 1.827697e-15 1.745823e-05)
4.7e-07       	(2.659059e-28 1.565300e-07 1.758078e-05)	(2.659059e-28 1.565300e-07 0.000000e+00)	(-2.819713e-36 1.835533e-15 1.758078e-05)
4.8e-07       	(2.671860e-28 1.572710e-07 1.769571e-05)	(2.671860e-28 1.572710e-07 0.000000e+00)	(-2.825632e-36 1.842889e-15 1.769571e-05)
4.9e-07       	(2.689120e-28 1.583808e-07 1.780351e-05)	(2.689120e-28 1.583808e-07 0.000000e+00)	(-2.830861e-36 1.849823e-15 1.780351e-05)
5e-07         	(2.691675e-28 1.583429e-07 1.790460e-05)	(2.691675e-28 1.583429e-07 0.000000e+00)	(-2.835583e-36 1.856258e-15 1.790460e-05)
5.1e-07       	(2.708596e-28 1.594548e-07 1.799941e-05)	(2.708596e-28 1.594548e-07 0.000000e+00)	(-2.839690e-36 1.862351e-15 1.799941e-05)
5.2e-07       	(2.717626e-28 1.599567e-07 1.808831e-05)	(2.717626e-28 1.599567e-07 0.000000e+00)	(-2.843314e-36 1.868058e-15 1.808831e-05)
5.3e-07       	(2.731804e-28 1.608783e-07 1.817168e-05)	(2.731804e-28 1.608783e-07 0.000000e+00)	(-2.846451e-36 1.873439e-15 1.817168e-05)
5.4e-07       	(2.733689e-28 1.608398e-07 1.824985e-05)	(2.733689e-28 1.608398e-07 0.000000e+00)	(-2.849248e-36 1.878433e-15 1.824985e-05)
5.5e-07       	(2.747722e-28 1.617731e-07 1.832315e-05)	(2.747722e-28 1.617731e-07 0.000000e+00)	(-2.851606e-36 1.883168e-15 1.832315e-05)
5.6e-07       	(2.756371e-28 1.622913e-07 1.839189e-05)	(2.756371e-28 1.622913e-07 0.000000e+00)	(-2.853640e-36 1.887599e-15 1.839189e-05)
5.7e-07       	(2.762720e-28 1.626377e-07 1.845634e-05)	(2.762720e-28 1.626377e-07 0.000000e+00)	(-2.855383e-36 1.891745e-15 1.845634e-05)
5.8e-07       	(2.771576e-28 1.631919e-07 1.851678e-05)	(2.771576e-28 1.631919e-07 0.000000e+00)	(-2.856818e-36 1.895657e-15 1.851678e-05)
5.9e-07       	(2.776402e-28 1.634362e-07 1.857345e-05)	(2.776402e-28 1.634362e-07 0.000000e+00)	(-2.858031e-36 1.899305e-15 1.857345e-05)
6e-07         	(2.784270e-28 1.639294e-07 1.862658e-05)	(2.784270e-28 1.639294e-07 0.000000e+00)	(-2.858999e-36 1.902743e-15 1.862658e-05)
6.1e-07       	(2.786659e-28 1.639973e-07 1.867640e-05)	(2.786659e-28 1.639973e-07 0.000000e+00)	(-2.859796e-36 1.905943e-15 1.867640e-05)
6.2e-07       	(2.792250e-28 1.643255e-07 1.872312e-05)	(2.792250e-28 1.643255e-07 0.000000e+00)	(-2.860395e-36 1.908956e-15 1.872312e-05)
6.3e-07       	(2.802750e-28 1.650489e-07 1.876692e-05)	(2.802750e-28 1.650489e-07 0.000000e+00)	(-2.860799e-36 1.911809e-15 1.876692e-05)
6.4e-07       	(2.806509e-28 1.652461e-07 1.880799e-05)	(2.806509e-28 1.652461e-07 0.000000e+00)	(-2.861074e-36 1.914473e-15 1.880799e-05)
6.5e-07       	(2.807596e-28 1.652380e-07 1.884649e-05)	(2.807596e-28 1.652380e-07 0.000000e+00)	(-2.861251e-36 1.916948e-15 1.884649e-05)
6.6e-07       	(2.814461e-28 1.656926e-07 1.888260e-05)	(2.814461e-28 1.656926e-07 0.000000e+00)	(-2.861283e-36 1.919294e-15 1.888260e-05)
6.7e-07       	(2.816768e-28 1.657920e-07 1.891645e-05)	(2.816768e-28 1.657920e-07 0.000000e+00)	(-2.861242e-36 1.921472e-15 1.891645e-05)
6.8e-07       	(2.821302e-28 1.660726e-07 1.894819e-05)	(2.821302e-28 1.660726e-07 0.000000e+00)	(-2.861097e-36 1.923528e-15 1.894819e-05)
6.9e-07       	(2.829756e-28 1.666682e-07 1.897795e-05)	(2.829756e-28 1.666682e-07 0.000000e+00)	(-2.860846e-36 1.925480e-15 1.897795e-05)
7e-07         	(2.829695e-28 1.665949e-07 1.900586e-05)	(2.829695e-28 1.665949e-07 0.000000e+00)	(-2.860566e-36 1.927281e-15 1.900586e-05)
7.1e-07       	(2.826811e-28 1.663026e-07 1.903202e-05)	(2.826811e-28 1.663026e-07 0.000000e+00)	(-2.860259e-36 1.928945e-15 1.903202e-05)
7.2e-07       	(2.835687e-28 1.669439e-07 1.905654e-05)	(2.835687e-28 1.669439e-07 0.000000e+00)	(-2.859846e-36 1.930550e-15 1.905654e-05)
7.3e-07       	(2.837616e-28 1.670400e-07 1.907952e-05)	(2.837616e-28 1.670400e-07 0.000000e+00)	(-2.859408e-36 1.932042e-15 1.907952e-05)
7.4e-07       	(2.840233e-28 1.671938e-07 1.910107e-05)	(2.840233e-28 1.671938e-07 0.000000e+00)	(-2.858941e-36 1.933437e-15 1.910107e-05)
7.5e-07       	(2.844705e-28 1.674977e-07 1.912128e-05)	(2.844705e-28 1.674977e-07 0.000000e+00)	(-2.858427e-36 1.934761e-15 1.912128e-05)
7.6e-07       	(2.845418e-28 1.675073e-07 1.914023e-05)	(2.845418e-28 1.675073e-07 0.000000e+00)	(-2.857914e-36 1.935983e-15 1.914023e-05)
7.7e-07       	(2.850598e-28 1.678730e-07 1.915800e-05)	(2.850598e-28 1.678730e-07 0.000000e+00)	(-2.857362e-36 1.937144e-15 1.915800e-05)
7.8e-07       	(2.844810e-28 1.673743e-07 1.917466e-05)	(2.844810e-28 1.673743e-07 0.000000e+00)	(-2.856857e-36 1.938186e-15 1.917466e-05)
7.9e-07       	(2.853094e-28 1.679907e-07 1.919028e-05)	(2.853094e-28 1.679907e-07 0.000000e+00)	(-2.856269e-36 1.939220e-15 1.919028e-05)
8e-07         	(2.851692e-28 1.678437e-07 1.920493e-05)	(2.851692e-28 1.678437e-07 0.000000e+00)	(-2.855712e-36 1.940160e-15 1.920493e-05)
8.1e-07       	(2.854323e-28 1.680178e-07 1.921867e-05)	(2.854323e-28 1.680178e-07 0.000000e+00)	(-2.855136e-36 1.941054e-15 1.921867e-05)
8.2e-07       	(2.855864e-28 1.681077e-07 1.923155e-05)	(2.855864e-28 1.681077e-07 0.000000e+00)	(-2.854565e-36 1.941887e-15 1.923155e-05)
8.3e-07       	(2.854727e-28 1.679881e-07 1.924362e-05)	(2.854727e-28 1.679881e-07 0.000000e+00)	(-2.854011e-36 1.942658e-15 1.924362e-05)
8.4e-07       	(2.858441e-28 1.682535e-07 1.925495e-05)	(2.858441e-28 1.682535e-07 0.000000e+00)	(-2.853446e-36 1.943391e-15 1.925495e-05)
8.5e-07       	(2.858483e-28 1.682306e-07 1.926556e-05)	(2.858483e-28 1.682306e-07 0.000000e+00)	(-2.852894e-36 1.944072e-15 1.926556e-05)
8.6e-07       	(2.865256e-28 1.687416e-07 1.927552e-05)	(2.865256e-28 1.687416e-07 0.000000e+00)	(-2.852301e-36 1.944750e-15 1.927552e-05)
8.7e-07       	(2.865100e-28 1.687063e-07 1.928485e-05)	(2.865100e-28 1.687063e-07 0.000000e+00)	(-2.851760e-36 1.945354e-15 1.928485e-05)
8.8e-07       	(2.861362e-28 1.683890e-07 1.929361e-05)	(2.861362e-28 1.683890e-07 0.000000e+00)	(-2.851264e-36 1.945891e-15 1.929361e-05)
8.9e-07       	(2.862188e-28 1.684338e-07 1.930181e-05)	(2.862189e-28 1.684338e-07 0.000000e+00)	(-2.850758e-36 1.946410e-15 1.930181e-05)
9e-07         	(2.868976e-28 1.689515e-07 1.930951e-05)	(2.868976e-28 1.689515e-07 0.000000e+00)	(-2.850219e-36 1.946931e-15 1.930951e-05)
9.1e-07       	(2.865877e-28 1.686886e-07 1.931672e-05)	(2.865877e-28 1.686886e-07 0.000000e+00)	(-2.849735e-36 1.947388e-15 1.931672e-05)
9.2e-07       	(2.865975e-28 1.686795e-07 1.932349e-05)	(2.865975e-28 1.686795e-07 0.000000e+00)	(-2.849263e-36 1.947816e-15 1.932349e-05)
9.3e-07       	(2.869306e-28 1.689273e-07 1.932983e-05)	(2.869306e-28 1.689273e-07 0.000000e+00)	(-2.848780e-36 1.948237e-15 1.932983e-05)
9.4e-07       	(2.868322e-28 1.688347e-07 1.933578e-05)	(2.868322e-28 1.688347e-07 0.000000e+00)	(-2.848335e-36 1.948613e-15 1.933578e-05)
9.5e-07       	(2.867663e-28 1.687687e-07 1.934136e-05)	(2.867663e-28 1.687687e-07 0.000000e+00)	(-2.847907e-36 1.948961e-15 1.934136e-05)
9.6e-07       	(2.873443e-28 1.692128e-07 1.934659e-05)	(2.873443e-28 1.692128e-07 0.000000e+00)	(-2.847446e-36 1.949325e-15 1.934659e-05)
9.7e-07       	(2.875330e-28 1.693500e-07 1.935149e-05)	(2.875330e-28 1.693500e-07 0.000000e+00)	(-2.847014e-36 1.949657e-15 1.935149e-05)
9.8e-07       	(2.869056e-28 1.688425e-07 1.935609e-05)	(2.869056e-28 1.688425e-07 0.000000e+00)	(-2.846658e-36 1.949919e-15 1.935609e-05)
9.9e-07       	(2.873820e-28 1.692083e-07 1.936040e-05)	(2.873820e-28 1.692083e-07 0.000000e+00)	(-2.846262e-36 1.950206e-15 1.936040e-05)
1e-06         	(2.869441e-28 1.688520e-07 1.936444e-05)	(2.869441e-28 1.688520e-07 0.000000e+00)	(-2.845917e-36 1.950445e-15 1.936444e-05)
1.01e-06      	(2.878941e-28 1.695937e-07 1.936823e-05)	(2.878941e-28 1.695937e-07 0.000000e+00)	(-2.845512e-36 1.950727e-15 1.936823e-05)
1.02e-06      	(2.872167e-28 1.690495e-07 1.937178e-05)	(2.872167e-28 1.690495e-07 0.000000e+00)	(-2.845196e-36 1.950934e-15 1.937178e-05)
1.03e-06      	(2.876904e-28 1.694157e-07 1.937512e-05)	(2.876904e-28 1.694157e-07 0.000000e+00)	(-2.844848e-36 1.951163e-15 1.937512e-05)
1.04e-06      	(2.871222e-28 1.689587e-07 1.937824e-05)	(2.871222e-28 1.689587e-07 0.000000e+00)	(-2.844564e-36 1.951337e-15 1.937824e-05)
1.05e-06      	(2.877008e-28 1.694088e-07 1.938117e-05)	(2.877008e-28 1.694088e-07 0.000000e+00)	(-2.844243e-36 1.951540e-15 1.938117e-05)
1.06e-06      	(2.873309e-28 1.691096e-07 1.938392e-05)	(2.873309e-28 1.691096e-07 0.000000e+00)	(-2.843963e-36 1.951707e-15 1.938392e-05)
1.07e-06      	(2.876948e-28 1.693908e-07 1.938649e-05)	(2.876948e-28 1.693908e-07 0.000000e+00)	(-2.843674e-36 1.951879e-15 1.938649e-05)
1.08e-06      	(2.874973e-28 1.692288e-07 1.938891e-05)	(2.874973e-28 1.692288e-07 0.000000e+00)	(-2.843418e-36 1.952025e-15 1.938891e-05)
1.09e-06      	(2.876706e-28 1.693601e-07 1.939117e-05)	(2.876706e-28 1.693601e-07 0.000000e+00)	(-2.843154e-36 1.952177e-15 1.939117e-05)
1.1e-06       	(2.874058e-28 1.691455e-07 1.939329e-05)	(2.874058e-28 1.691455e-07 0.000000e+00)	(-2.842926e-36 1.952299e-15 1.939329e-05)
1.11e-06      	(2.876002e-28 1.692942e-07 1.939528e-05)	(2.876002e-28 1.692942e-07 0.000000e+00)	(-2.842689e-36 1.952429e-15 1.939528e-05)
1.12e-06      	(2.872825e-28 1.690383e-07 1.939715e-05)	(2.872825e-28 1.690383e-07 0.000000e+00)	(-2.842485e-36 1.952532e-15 1.939715e-05)
1.13e-06      	(2.877988e-28 1.694421e-07 1.939890e-05)	(2.877988e-28 1.694421e-07 0.000000e+00)	(-2.842247e-36 1.952664e-15 1.939890e-05)
1.14e-06      	(2.877283e-28 1.693824e-07 1.940054e-05)	(2.877283e-28 1.693824e-07 0.000000e+00)	(-2.842043e-36 1.952769e-15 1.940054e-05)
1.15e-06      	(2.879996e-28 1.695932e-07 1.940208e-05)	(2.879996e-28 1.695932e-07 0.000000e+00)	(-2.841825e-36 1.952886e-15 1.940208e-05)
1.16e-06      	(2.876765e-28 1.693341e-07 1.940352e-05)	(2.876765e-28 1.693341e-07 0.000000e+00)	(-2.841660e-36 1.952962e-15 1.940352e-05)
1.17e-06      	(2.876869e-28 1.693389e-07 1.940488e-05)	(2.876869e-28 1.693389e-07 0.000000e+00)	(-2.841493e-36 1.953041e-15 1.940488e-05)
1.18e-06      	(2.879341e-28 1.695313e-07 1.940614e-05)	(2.879341e-28 1.695313e-07 0.000000e+00)	(-2.841309e-36 1.953134e-15 1.940614e-05)
1.19e-06      	(2.875939e-28 1.692594e-07 1.940733e-05)	(2.875939e-28 1.692594e-07 0.000000e+00)	(-2.841160e-36 1.953201e-15 1.940733e-05)
1.2e-06       	(2.877612e-28 1.693888e-07 1.940845e-05)	(2.877612e-28 1.693888e-07 0.000000e+00)	(-2.841007e-36 1.953272e-15 1.940845e-05)
1.21e-06      	(2.874796e-28 1.691635e-07 1.940949e-05)	(2.874796e-28 1.691635e-07 0.000000e+00)	(-2.840885e-36 1.953320e-15 1.940949e-05)
1.22e-06      	(2.881006e-28 1.696521e-07 1.941047e-05)	(2.881006e-28 1.696521e-07 0.000000e+00)	(-2.840711e-36 1.953411e-15 1.941047e-05)
1.23e-06      	(2.878691e-28 1.694669e-07 1.941139e-05)	(2.878691e-28 1.694669e-07 0.000000e+00)	(-2.840579e-36 1.953470e-15 1.941139e-05)
1.24e-06      	(2.876580e-28 1.692977e-07 1.941226e-05)	(2.876580e-28 1.692977e-07 0.000000e+00)	(-2.840476e-36 1.953507e-15 1.941226e-05)
1.25e-06      	(2.878464e-28 1.694446e-07 1.941306e-05)	(2.878464e-28 1.694446e-07 0.000000e+00)	(-2.840352e-36 1.953563e-15 1.941306e-05)
1.26e-06      	(2.877132e-28 1.693375e-07 1.941382e-05)	(2.877132e-28 1.693375e-07 0.000000e+00)	(-2.840242e-36 1.953609e-15 1.941382e-05)
1.27e-06      	(2.881774e-28 1.697027e-07 1.941453e-05)	(2.881774e-28 1.697027e-07 0.000000e+00)	(-2.840109e-36 1.953675e-15 1.941453e-05)
1.28e-06      	(2.874955e-28 1.691619e-07 1.941520e-05)	(2.874955e-28 1.691619e-07 0.000000e+00)	(-2.840047e-36 1.953686e-15 1.941520e-05)
1.29e-06      	(2.876720e-28 1.692999e-07 1.941582e-05)	(2.876720e-28 1.692999e-07 0.000000e+00)	(-2.839947e-36 1.953728e-15 1.941582e-05)
1.3e-06       	(2.880244e-28 1.695769e-07 1.941641e-05)	(2.880244e-28 1.695769e-07 0.000000e+00)	(-2.839840e-36 1.953777e-15 1.941641e-05)
1.31e-06      	(2.878734e-28 1.694564e-07 1.941695e-05)	(2.878734e-28 1.694564e-07 0.000000e+00)	(-2.839753e-36 1.953813e-15 1.941695e-05)
1.32e-06      	(2.879016e-28 1.694775e-07 1.941747e-05)	(2.879016e-28 1.694775e-07 0.000000e+00)	(-2.839664e-36 1.953851e-15 1.941747e-05)
1.33e-06      	(2.876766e-28 1.692983e-07 1.941795e-05)	(2.876766e-28 1.692983e-07 0.000000e+00)	(-2.839606e-36 1.953865e-15 1.941795e-05)
1.34e-06      	(2.879824e-28 1.695388e-07 1.941840e-05)	(2.879824e-28 1.695388e-07 0.000000e+00)	(-2.839522e-36 1.953902e-15 1.941840e-05)
1.35e-06      	(2.879138e-28 1.694836e-07 1.941882e-05)	(2.879138e-28 1.694836e-07 0.000000e+00)	(-2.839448e-36 1.953932e-15 1.941882e-05)
1.36e-06      	(2.879438e-28 1.695063e-07 1.941922e-05)	(2.879438e-28 1.695063e-07 0.000000e+00)	(-2.839378e-36 1.953960e-15 1.941922e-05)
1.37e-06      	(2.880484e-28 1.695881e-07 1.941959e-05)	(2.880484e-28 1.695881e-07 0.000000e+00)	(-2.839310e-36 1.953987e-15 1.941959e-05)
1.38e-06      	(2.881951e-28 1.697033e-07 1.941994e-05)	(2.881951e-28 1.697033e-07 0.000000e+00)	(-2.839239e-36 1.954018e-15 1.941994e-05)
1.39e-06      	(2.875944e-28 1.692276e-07 1.942027e-05)	(2.875944e-28 1.692276e-07 0.000000e+00)	(-2.839214e-36 1.954014e-15 1.942027e-05)
1.4e-06       	(2.879419e-28 1.695015e-07 1.942058e-05)	(2.879419e-28 1.695015e-07 0.000000e+00)	(-2.839156e-36 1.954037e-15 1.942058e-05)
