# Moment      
# CofR        : (0.000000e+00 0.000000e+00 0.000000e+00)
#
# Time        	(total_x total_y total_z)	(pressure_x pressure_y pressure_z)	(viscous_x viscous_y viscous_z)
1e-08         	(1.411176e-28 8.319656e-08 6.523506e-06)	(1.411176e-28 8.319656e-08 0.000000e+00)	(-3.827542e-38 2.491392e-17 6.523506e-06)
2e-08         	(2.417143e-28 1.423209e-07 1.756424e-05)	(2.417143e-28 1.423209e-07 0.000000e+00)	(-1.218610e-37 8.614011e-17 1.756424e-05)
3e-08         	(2.936739e-28 1.731879e-07 2.823509e-05)	(2.936739e-28 1.731879e-07 0.000000e+00)	(-1.534294e-37 1.404771e-16 2.823509e-05)
4e-08         	(3.172896e-28 1.868137e-07 3.688287e-05)	(3.172896e-28 1.868137e-07 0.000000e+00)	(-1.903096e-37 1.749610e-16 3.688287e-05)
5e-08         	(3.300832e-28 1.943901e-07 4.332505e-05)	(3.300832e-28 1.943901e-07 0.000000e+00)	(-2.420177e-37 1.941715e-16 4.332505e-05)
6e-08         	(3.357117e-28 1.977011e-07 4.792241e-05)	(3.357117e-28 1.977011e-07 0.000000e+00)	(-2.094150e-37 2.041951e-16 4.792241e-05)
7e-08         	(3.367620e-28 1.981675e-07 5.113038e-05)	(3.367620e-28 1.981675e-07 0.000000e+00)	(-1.961710e-37 2.091454e-16 5.113038e-05)
8e-08         	(3.372288e-28 1.986004e-07 5.334195e-05)	(3.372288e-28 1.986004e-07 0.000000e+00)	(-1.967843e-37 2.115305e-16 5.334195e-05)
9e-08         	(3.363697e-28 1.982260e-07 5.485700e-05)	(3.363697e-28 1.982260e-07 0.000000e+00)	(-1.736423e-37 2.126278e-16 5.485700e-05)
1e-07         	(3.332486e-28 1.961754e-07 5.589103e-05)	(3.332486e-28 1.961754e-07 0.000000e+00)	(-1.690522e-37 2.130851e-16 5.589103e-05)
1.1e-07       	(3.302265e-28 1.942263e-07 5.659568e-05)	(3.302265e-28 1.942263e-07 0.000000e+00)	(-1.638808e-37 2.132555e-16 5.659568e-05)
1.2e-07       	(3.277165e-28 1.926568e-07 5.707545e-05)	(3.277165e-28 1.926568e-07 0.000000e+00)	(-1.564619e-37 2.133050e-16 5.707545e-05)
1.3e-07       	(3.281183e-28 1.933480e-07 5.740172e-05)	(3.281183e-28 1.933480e-07 0.000000e+00)	(-1.588487e-37 2.133180e-16 5.740172e-05)
1.4e-07       	(3.251103e-28 1.912835e-07 5.762369e-05)	(3.251103e-28 1.912835e-07 0.000000e+00)	(-1.570965e-37 2.132936e-16 5.762369e-05)
1.5e-07       	(3.233184e-28 1.901187e-07 5.777445e-05)	(3.233184e-28 1.901187e-07 0.000000e+00)	(-1.533473e-37 2.132694e-16 5.777445e-05)
1.6e-07       	(3.259904e-28 1.924556e-07 5.787706e-05)	(3.259904e-28 1.924556e-07 0.000000e+00)	(-1.503170e-37 2.132784e-16 5.787706e-05)
1.7e-07       	(3.216461e-28 1.891876e-07 5.794657e-05)	(3.216461e-28 1.891876e-07 0.000000e+00)	(-1.514125e-37 2.132307e-16 5.794657e-05)
1.8e-07       	(3.227733e-28 1.902202e-07 5.799397e-05)	(3.227733e-28 1.902202e-07 0.000000e+00)	(-1.505191e-37 2.132273e-16 5.799397e-05)
1.9e-07       	(3.223063e-28 1.899636e-07 5.802637e-05)	(3.223063e-28 1.899636e-07 0.000000e+00)	(-1.510881e-37 2.132183e-16 5.802637e-05)
2e-07         	(3.215447e-28 1.894487e-07 5.804833e-05)	(3.215447e-28 1.894487e-07 0.000000e+00)	(-1.509958e-37 2.132132e-16 5.804833e-05)
2.1e-07       	(3.208405e-28 1.889625e-07 5.806344e-05)	(3.208405e-28 1.889625e-07 0.000000e+00)	(-1.509203e-37 2.131935e-16 5.806344e-05)
2.2e-07       	(3.181781e-28 1.869037e-07 5.807358e-05)	(3.181781e-28 1.869037e-07 0.000000e+00)	(-1.509674e-37 2.131828e-16 5.807358e-05)
2.3e-07       	(3.209976e-28 1.891858e-07 5.808064e-05)	(3.209976e-28 1.891858e-07 0.000000e+00)	(-1.513976e-37 2.131917e-16 5.808064e-05)
2.4e-07       	(3.192779e-28 1.878543e-07 5.808535e-05)	(3.192779e-28 1.878543e-07 0.000000e+00)	(-1.511797e-37 2.131812e-16 5.808535e-05)
2.5e-07       	(3.194083e-28 1.879761e-07 5.808863e-05)	(3.194083e-28 1.879761e-07 0.000000e+00)	(-1.508774e-37 2.131819e-16 5.808863e-05)
2.6e-07       	(3.178137e-28 1.867365e-07 5.809070e-05)	(3.178137e-28 1.867365e-07 0.000000e+00)	(-1.509358e-37 2.131704e-16 5.809070e-05)
2.7e-07       	(3.200106e-28 1.884966e-07 5.809222e-05)	(3.200106e-28 1.884966e-07 0.000000e+00)	(-1.511468e-37 2.131809e-16 5.809222e-05)
2.8e-07       	(3.192175e-28 1.878792e-07 5.809335e-05)	(3.192175e-28 1.878792e-07 0.000000e+00)	(-1.510211e-37 2.131857e-16 5.809335e-05)
2.9e-07       	(3.200002e-28 1.885119e-07 5.809420e-05)	(3.200002e-28 1.885119e-07 0.000000e+00)	(-1.510664e-37 2.131836e-16 5.809420e-05)
3e-07         	(3.183263e-28 1.871885e-07 5.809484e-05)	(3.183263e-28 1.871885e-07 0.000000e+00)	(-1.510466e-37 2.131769e-16 5.809484e-05)
3.1e-07       	(3.200369e-28 1.885494e-07 5.809531e-05)	(3.200369e-28 1.885494e-07 0.000000e+00)	(-1.510254e-37 2.131879e-16 5.809531e-05)
3.2e-07       	(3.197761e-28 1.883414e-07 5.809567e-05)	(3.197761e-28 1.883414e-07 0.000000e+00)	(-1.510860e-37 2.131866e-16 5.809567e-05)
3.3e-07       	(3.221060e-28 1.901879e-07 5.809594e-05)	(3.221060e-28 1.901879e-07 0.000000e+00)	(-1.511050e-37 2.131905e-16 5.809594e-05)
3.4e-07       	(3.185445e-28 1.873656e-07 5.809614e-05)	(3.185445e-28 1.873656e-07 0.000000e+00)	(-1.510808e-37 2.131840e-16 5.809614e-05)
3.5e-07       	(3.195153e-28 1.881360e-07 5.809630e-05)	(3.195153e-28 1.881360e-07 0.000000e+00)	(-1.510520e-37 2.131866e-16 5.809630e-05)
3.6e-07       	(3.202176e-28 1.886951e-07 5.809641e-05)	(3.202176e-28 1.886951e-07 0.000000e+00)	(-1.510587e-37 2.131933e-16 5.809641e-05)
3.7e-07       	(3.216551e-28 1.898320e-07 5.809650e-05)	(3.216551e-28 1.898320e-07 0.000000e+00)	(-1.510820e-37 2.131936e-16 5.809650e-05)
3.8e-07       	(3.214682e-28 1.896912e-07 5.809656e-05)	(3.214682e-28 1.896912e-07 0.000000e+00)	(-1.510837e-37 2.131916e-16 5.809656e-05)
3.9e-07       	(3.175994e-28 1.866131e-07 5.809661e-05)	(3.175994e-28 1.866131e-07 0.000000e+00)	(-1.510269e-37 2.131724e-16 5.809661e-05)
4e-07         	(3.186032e-28 1.874163e-07 5.809665e-05)	(3.186032e-28 1.874163e-07 0.000000e+00)	(-1.510558e-37 2.131850e-16 5.809665e-05)
4.1e-07       	(3.186894e-28 1.874913e-07 5.809668e-05)	(3.186894e-28 1.874913e-07 0.000000e+00)	(-1.510705e-37 2.131717e-16 5.809668e-05)
4.2e-07       	(3.199490e-28 1.884858e-07 5.809670e-05)	(3.199490e-28 1.884858e-07 0.000000e+00)	(-1.510849e-37 2.131909e-16 5.809670e-05)
4.3e-07       	(3.202755e-28 1.887421e-07 5.809671e-05)	(3.202755e-28 1.887421e-07 0.000000e+00)	(-1.510694e-37 2.131926e-16 5.809671e-05)
4.4e-07       	(3.191963e-28 1.878878e-07 5.809672e-05)	(3.191963e-28 1.878878e-07 0.000000e+00)	(-1.510646e-37 2.131773e-16 5.809672e-05)
4.5e-07       	(3.202659e-28 1.887410e-07 5.809673e-05)	(3.202659e-28 1.887410e-07 0.000000e+00)	(-1.510986e-37 2.131864e-16 5.809673e-05)
4.6e-07       	(3.207005e-28 1.890837e-07 5.809674e-05)	(3.207005e-28 1.890837e-07 0.000000e+00)	(-1.510826e-37 2.131925e-16 5.809674e-05)
4.7e-07       	(3.206145e-28 1.890100e-07 5.809675e-05)	(3.206145e-28 1.890100e-07 0.000000e+00)	(-1.510674e-37 2.132001e-16 5.809675e-05)
4.8e-07       	(3.198296e-28 1.883841e-07 5.809675e-05)	(3.198296e-28 1.883841e-07 0.000000e+00)	(-1.510343e-37 2.131793e-16 5.809675e-05)
4.9e-07       	(3.195052e-28 1.881293e-07 5.809675e-05)	(3.195052e-28 1.881293e-07 0.000000e+00)	(-1.510572e-37 2.131828e-16 5.809675e-05)
5e-07         	(3.179705e-28 1.869169e-07 5.809675e-05)	(3.179705e-28 1.869169e-07 0.000000e+00)	(-1.510616e-37 2.131854e-16 5.809675e-05)
5.1e-07       	(3.186243e-28 1.874392e-07 5.809676e-05)	(3.186243e-28 1.874392e-07 0.000000e+00)	(-1.510664e-37 2.131647e-16 5.809676e-05)
5.2e-07       	(3.199981e-28 1.885348e-07 5.809676e-05)	(3.199981e-28 1.885348e-07 0.000000e+00)	(-1.511242e-37 2.131835e-16 5.809676e-05)
5.3e-07       	(3.180876e-28 1.870125e-07 5.809676e-05)	(3.180876e-28 1.870124e-07 0.000000e+00)	(-1.510637e-37 2.131746e-16 5.809676e-05)
5.4e-07       	(3.184469e-28 1.873006e-07 5.809676e-05)	(3.184469e-28 1.873006e-07 0.000000e+00)	(-1.510865e-37 2.131797e-16 5.809676e-05)
5.5e-07       	(3.180324e-28 1.869695e-07 5.809676e-05)	(3.180324e-28 1.869695e-07 0.000000e+00)	(-1.510758e-37 2.131693e-16 5.809676e-05)
5.6e-07       	(3.175831e-28 1.866158e-07 5.809676e-05)	(3.175831e-28 1.866158e-07 0.000000e+00)	(-1.510955e-37 2.131710e-16 5.809676e-05)
5.7e-07       	(3.180062e-28 1.869565e-07 5.809676e-05)	(3.180062e-28 1.869565e-07 0.000000e+00)	(-1.510778e-37 2.131645e-16 5.809676e-05)
5.8e-07       	(3.179760e-28 1.869302e-07 5.809676e-05)	(3.179760e-28 1.869302e-07 0.000000e+00)	(-1.511100e-37 2.131686e-16 5.809676e-05)
5.9e-07       	(3.204234e-28 1.888711e-07 5.809676e-05)	(3.204234e-28 1.888711e-07 0.000000e+00)	(-1.510734e-37 2.131901e-16 5.809676e-05)
6e-07         	(3.194089e-28 1.880653e-07 5.809676e-05)	(3.194089e-28 1.880653e-07 0.000000e+00)	(-1.510935e-37 2.131797e-16 5.809676e-05)
6.1e-07       	(3.176065e-28 1.866323e-07 5.809676e-05)	(3.176065e-28 1.866323e-07 0.000000e+00)	(-1.510779e-37 2.131698e-16 5.809676e-05)
6.2e-07       	(3.188944e-28 1.876573e-07 5.809676e-05)	(3.188944e-28 1.876573e-07 0.000000e+00)	(-1.510993e-37 2.131732e-16 5.809676e-05)
6.3e-07       	(3.193379e-28 1.880144e-07 5.809676e-05)	(3.193379e-28 1.880144e-07 0.000000e+00)	(-1.511233e-37 2.131848e-16 5.809676e-05)
6.4e-07       	(3.197779e-28 1.883611e-07 5.809676e-05)	(3.197779e-28 1.883611e-07 0.000000e+00)	(-1.510992e-37 2.131904e-16 5.809676e-05)
6.5e-07       	(3.180931e-28 1.870219e-07 5.809676e-05)	(3.180931e-28 1.870219e-07 0.000000e+00)	(-1.510516e-37 2.131912e-16 5.809676e-05)
6.6e-07       	(3.180884e-28 1.870150e-07 5.809676e-05)	(3.180884e-28 1.870150e-07 0.000000e+00)	(-1.510568e-37 2.131818e-16 5.809676e-05)
6.7e-07       	(3.185372e-28 1.873716e-07 5.809676e-05)	(3.185372e-28 1.873716e-07 0.000000e+00)	(-1.510878e-37 2.131693e-16 5.809676e-05)
6.8e-07       	(3.171014e-28 1.862304e-07 5.809676e-05)	(3.171014e-28 1.862304e-07 0.000000e+00)	(-1.510471e-37 2.131764e-16 5.809676e-05)
6.9e-07       	(3.214958e-28 1.897227e-07 5.809676e-05)	(3.214958e-28 1.897227e-07 0.000000e+00)	(-1.511164e-37 2.131860e-16 5.809676e-05)
7e-07         	(3.194442e-28 1.880869e-07 5.809676e-05)	(3.194442e-28 1.880869e-07 0.000000e+00)	(-1.510978e-37 2.131810e-16 5.809676e-05)
7.1e-07       	(3.200236e-28 1.885481e-07 5.809676e-05)	(3.200236e-28 1.885481e-07 0.000000e+00)	(-1.510956e-37 2.131837e-16 5.809676e-05)
7.2e-07       	(3.217162e-28 1.898964e-07 5.809676e-05)	(3.217162e-28 1.898964e-07 0.000000e+00)	(-1.511223e-37 2.131917e-16 5.809676e-05)
7.3e-07       	(3.170670e-28 1.861985e-07 5.809676e-05)	(3.170670e-28 1.861985e-07 0.000000e+00)	(-1.510297e-37 2.131658e-16 5.809676e-05)
7.4e-07       	(3.186215e-28 1.874380e-07 5.809676e-05)	(3.186215e-28 1.874380e-07 0.000000e+00)	(-1.510940e-37 2.131735e-16 5.809676e-05)
7.5e-07       	(3.214710e-28 1.897014e-07 5.809676e-05)	(3.214710e-28 1.897014e-07 0.000000e+00)	(-1.511433e-37 2.131912e-16 5.809676e-05)
7.6e-07       	(3.188407e-28 1.876062e-07 5.809676e-05)	(3.188407e-28 1.876062e-07 0.000000e+00)	(-1.510692e-37 2.131884e-16 5.809676e-05)
7.7e-07       	(3.192311e-28 1.879187e-07 5.809676e-05)	(3.192311e-28 1.879187e-07 0.000000e+00)	(-1.510915e-37 2.131835e-16 5.809676e-05)
7.8e-07       	(3.191380e-28 1.878455e-07 5.809676e-05)	(3.191380e-28 1.878455e-07 0.000000e+00)	(-1.510519e-37 2.131882e-16 5.809676e-05)
7.9e-07       	(3.181815e-28 1.870845e-07 5.809676e-05)	(3.181815e-28 1.870845e-07 0.000000e+00)	(-1.510540e-37 2.131759e-16 5.809676e-05)
8e-07         	(3.195462e-28 1.881658e-07 5.809676e-05)	(3.195462e-28 1.881658e-07 0.000000e+00)	(-1.510926e-37 2.131781e-16 5.809676e-05)
8.1e-07       	(3.181743e-28 1.870774e-07 5.809676e-05)	(3.181743e-28 1.870774e-07 0.000000e+00)	(-1.510661e-37 2.131783e-16 5.809676e-05)
8.2e-07       	(3.196746e-28 1.882693e-07 5.809676e-05)	(3.196746e-28 1.882693e-07 0.000000e+00)	(-1.510903e-37 2.131731e-16 5.809676e-05)
8.3e-07       	(3.203480e-28 1.887998e-07 5.809676e-05)	(3.203480e-28 1.887998e-07 0.000000e+00)	(-1.510682e-37 2.131980e-16 5.809676e-05)
8.4e-07       	(3.184685e-28 1.873107e-07 5.809676e-05)	(3.184685e-28 1.873107e-07 0.000000e+00)	(-1.510667e-37 2.131762e-16 5.809676e-05)
8.5e-07       	(3.186819e-28 1.874812e-07 5.809676e-05)	(3.186819e-28 1.874812e-07 0.000000e+00)	(-1.510951e-37 2.131637e-16 5.809676e-05)
8.6e-07       	(3.197565e-28 1.883355e-07 5.809676e-05)	(3.197565e-28 1.883355e-07 0.000000e+00)	(-1.511047e-37 2.131723e-16 5.809676e-05)
8.7e-07       	(3.193713e-28 1.880295e-07 5.809676e-05)	(3.193713e-28 1.880295e-07 0.000000e+00)	(-1.510831e-37 2.131817e-16 5.809676e-05)
8.8e-07       	(3.195969e-28 1.882067e-07 5.809676e-05)	(3.195969e-28 1.882067e-07 0.000000e+00)	(-1.510817e-37 2.131798e-16 5.809676e-05)
8.9e-07       	(3.190469e-28 1.877725e-07 5.809676e-05)	(3.190469e-28 1.877725e-07 0.000000e+00)	(-1.510917e-37 2.131748e-16 5.809676e-05)
9e-07         	(3.194131e-28 1.880622e-07 5.809676e-05)	(3.194131e-28 1.880622e-07 0.000000e+00)	(-1.510799e-37 2.131808e-16 5.809676e-05)
9.1e-07       	(3.198537e-28 1.884104e-07 5.809676e-05)	(3.198537e-28 1.884104e-07 0.000000e+00)	(-1.510790e-37 2.131923e-16 5.809676e-05)
9.2e-07       	(3.191092e-28 1.878205e-07 5.809676e-05)	(3.191092e-28 1.878205e-07 0.000000e+00)	(-1.510569e-37 2.131928e-16 5.809676e-05)
9.3e-07       	(3.190840e-28 1.878001e-07 5.809676e-05)	(3.190840e-28 1.878001e-07 0.000000e+00)	(-1.510641e-37 2.131885e-16 5.809676e-05)
9.4e-07       	(3.192734e-28 1.879514e-07 5.809676e-05)	(3.192734e-28 1.879514e-07 0.000000e+00)	(-1.510761e-37 2.131863e-16 5.809676e-05)
9.5e-07       	(3.195901e-28 1.882021e-07 5.809676e-05)	(3.195901e-28 1.882021e-07 0.000000e+00)	(-1.510752e-37 2.131898e-16 5.809676e-05)
9.6e-07       	(3.196494e-28 1.882488e-07 5.809676e-05)	(3.196494e-28 1.882488e-07 0.000000e+00)	(-1.510691e-37 2.131918e-16 5.809676e-05)
9.7e-07       	(3.190762e-28 1.877948e-07 5.809676e-05)	(3.190762e-28 1.877948e-07 0.000000e+00)	(-1.510626e-37 2.131890e-16 5.809676e-05)
9.8e-07       	(3.191124e-28 1.878235e-07 5.809676e-05)	(3.191124e-28 1.878235e-07 0.000000e+00)	(-1.510729e-37 2.131851e-16 5.809676e-05)
9.9e-07       	(3.193498e-28 1.880122e-07 5.809676e-05)	(3.193498e-28 1.880122e-07 0.000000e+00)	(-1.510770e-37 2.131856e-16 5.809676e-05)
1e-06         	(3.193536e-28 1.880155e-07 5.809676e-05)	(3.193536e-28 1.880155e-07 0.000000e+00)	(-1.510796e-37 2.131856e-16 5.809676e-05)
1.01e-06      	(3.193063e-28 1.879773e-07 5.809676e-05)	(3.193063e-28 1.879773e-07 0.000000e+00)	(-1.510789e-37 2.131844e-16 5.809676e-05)
1.02e-06      	(3.192581e-28 1.879390e-07 5.809676e-05)	(3.192581e-28 1.879390e-07 0.000000e+00)	(-1.510783e-37 2.131836e-16 5.809676e-05)
1.03e-06      	(3.192017e-28 1.878945e-07 5.809676e-05)	(3.192017e-28 1.878945e-07 0.000000e+00)	(-1.510796e-37 2.131815e-16 5.809676e-05)
1.04e-06      	(3.191639e-28 1.878643e-07 5.809676e-05)	(3.191639e-28 1.878643e-07 0.000000e+00)	(-1.510816e-37 2.131794e-16 5.809676e-05)
1.05e-06      	(3.192283e-28 1.879155e-07 5.809676e-05)	(3.192283e-28 1.879155e-07 0.000000e+00)	(-1.510825e-37 2.131789e-16 5.809676e-05)
1.06e-06      	(3.191930e-28 1.878873e-07 5.809676e-05)	(3.191930e-28 1.878873e-07 0.000000e+00)	(-1.510827e-37 2.131789e-16 5.809676e-05)
1.07e-06      	(3.192418e-28 1.879261e-07 5.809676e-05)	(3.192418e-28 1.879261e-07 0.000000e+00)	(-1.510832e-37 2.131789e-16 5.809676e-05)
1.08e-06      	(3.191152e-28 1.878257e-07 5.809676e-05)	(3.191152e-28 1.878257e-07 0.000000e+00)	(-1.510814e-37 2.131784e-16 5.809676e-05)
1.09e-06      	(3.191737e-28 1.878721e-07 5.809676e-05)	(3.191737e-28 1.878721e-07 0.000000e+00)	(-1.510836e-37 2.131780e-16 5.809676e-05)
1.1e-06       	(3.192203e-28 1.879092e-07 5.809676e-05)	(3.192203e-28 1.879092e-07 0.000000e+00)	(-1.510853e-37 2.131780e-16 5.809676e-05)
1.11e-06      	(3.192229e-28 1.879112e-07 5.809676e-05)	(3.192229e-28 1.879112e-07 0.000000e+00)	(-1.510850e-37 2.131779e-16 5.809676e-05)
1.12e-06      	(3.192226e-28 1.879110e-07 5.809676e-05)	(3.192226e-28 1.879110e-07 0.000000e+00)	(-1.510849e-37 2.131778e-16 5.809676e-05)
1.13e-06      	(3.192717e-28 1.879499e-07 5.809676e-05)	(3.192717e-28 1.879499e-07 0.000000e+00)	(-1.510861e-37 2.131778e-16 5.809676e-05)
1.14e-06      	(3.192237e-28 1.879118e-07 5.809676e-05)	(3.192237e-28 1.879118e-07 0.000000e+00)	(-1.510849e-37 2.131777e-16 5.809676e-05)
1.15e-06      	(3.192052e-28 1.878973e-07 5.809676e-05)	(3.192052e-28 1.878973e-07 0.000000e+00)	(-1.510852e-37 2.131772e-16 5.809676e-05)
1.16e-06      	(3.192133e-28 1.879036e-07 5.809676e-05)	(3.192133e-28 1.879036e-07 0.000000e+00)	(-1.510859e-37 2.131770e-16 5.809676e-05)
1.17e-06      	(3.192144e-28 1.879045e-07 5.809676e-05)	(3.192144e-28 1.879045e-07 0.000000e+00)	(-1.510859e-37 2.131769e-16 5.809676e-05)
1.18e-06      	(3.192145e-28 1.879046e-07 5.809676e-05)	(3.192145e-28 1.879046e-07 0.000000e+00)	(-1.510859e-37 2.131769e-16 5.809676e-05)
1.19e-06      	(3.192145e-28 1.879046e-07 5.809676e-05)	(3.192145e-28 1.879046e-07 0.000000e+00)	(-1.510859e-37 2.131769e-16 5.809676e-05)
1.2e-06       	(3.192145e-28 1.879045e-07 5.809676e-05)	(3.192145e-28 1.879045e-07 0.000000e+00)	(-1.510859e-37 2.131769e-16 5.809676e-05)
1.21e-06      	(3.192145e-28 1.879046e-07 5.809676e-05)	(3.192145e-28 1.879046e-07 0.000000e+00)	(-1.510859e-37 2.131769e-16 5.809676e-05)
1.22e-06      	(3.192145e-28 1.879046e-07 5.809676e-05)	(3.192145e-28 1.879046e-07 0.000000e+00)	(-1.510859e-37 2.131769e-16 5.809676e-05)
1.23e-06      	(3.192145e-28 1.879046e-07 5.809676e-05)	(3.192145e-28 1.879046e-07 0.000000e+00)	(-1.510859e-37 2.131769e-16 5.809676e-05)
1.24e-06      	(3.192145e-28 1.879046e-07 5.809676e-05)	(3.192145e-28 1.879046e-07 0.000000e+00)	(-1.510859e-37 2.131769e-16 5.809676e-05)
1.25e-06      	(3.192144e-28 1.879045e-07 5.809676e-05)	(3.192144e-28 1.879045e-07 0.000000e+00)	(-1.510859e-37 2.131769e-16 5.809676e-05)
1.26e-06      	(3.192147e-28 1.879047e-07 5.809676e-05)	(3.192147e-28 1.879047e-07 0.000000e+00)	(-1.510859e-37 2.131769e-16 5.809676e-05)
1.27e-06      	(3.192145e-28 1.879046e-07 5.809676e-05)	(3.192145e-28 1.879046e-07 0.000000e+00)	(-1.510859e-37 2.131769e-16 5.809676e-05)
1.28e-06      	(3.192144e-28 1.879045e-07 5.809676e-05)	(3.192144e-28 1.879045e-07 0.000000e+00)	(-1.510859e-37 2.131769e-16 5.809676e-05)
1.29e-06      	(3.192147e-28 1.879047e-07 5.809676e-05)	(3.192147e-28 1.879047e-07 0.000000e+00)	(-1.510859e-37 2.131769e-16 5.809676e-05)
1.3e-06       	(3.192144e-28 1.879045e-07 5.809676e-05)	(3.192144e-28 1.879045e-07 0.000000e+00)	(-1.510859e-37 2.131769e-16 5.809676e-05)
1.31e-06      	(3.192147e-28 1.879047e-07 5.809676e-05)	(3.192147e-28 1.879047e-07 0.000000e+00)	(-1.510859e-37 2.131769e-16 5.809676e-05)
1.32e-06      	(3.192145e-28 1.879045e-07 5.809676e-05)	(3.192145e-28 1.879045e-07 0.000000e+00)	(-1.510859e-37 2.131769e-16 5.809676e-05)
1.33e-06      	(3.192145e-28 1.879046e-07 5.809676e-05)	(3.192145e-28 1.879046e-07 0.000000e+00)	(-1.510859e-37 2.131769e-16 5.809676e-05)
1.34e-06      	(3.192146e-28 1.879047e-07 5.809676e-05)	(3.192146e-28 1.879047e-07 0.000000e+00)	(-1.510860e-37 2.131769e-16 5.809676e-05)
1.35e-06      	(3.192144e-28 1.879045e-07 5.809676e-05)	(3.192144e-28 1.879045e-07 0.000000e+00)	(-1.510859e-37 2.131769e-16 5.809676e-05)
1.36e-06      	(3.192147e-28 1.879048e-07 5.809676e-05)	(3.192147e-28 1.879048e-07 0.000000e+00)	(-1.510859e-37 2.131769e-16 5.809676e-05)
1.37e-06      	(3.192146e-28 1.879046e-07 5.809676e-05)	(3.192146e-28 1.879046e-07 0.000000e+00)	(-1.510859e-37 2.131769e-16 5.809676e-05)
1.38e-06      	(3.192146e-28 1.879046e-07 5.809676e-05)	(3.192146e-28 1.879046e-07 0.000000e+00)	(-1.510859e-37 2.131769e-16 5.809676e-05)
1.39e-06      	(3.192147e-28 1.879047e-07 5.809676e-05)	(3.192147e-28 1.879047e-07 0.000000e+00)	(-1.510859e-37 2.131769e-16 5.809676e-05)
1.4e-06       	(3.192145e-28 1.879046e-07 5.809676e-05)	(3.192145e-28 1.879046e-07 0.000000e+00)	(-1.510859e-37 2.131769e-16 5.809676e-05)
