/*--------------------------------*- C++ -*----------------------------------*\
| =========                 |                                                 |
| \\      /  F ield         | OpenFOAM: The Open Source CFD Toolbox           |
|  \\    /   O peration     | Version:  2206                                  |
|   \\  /    A nd           | Website:  www.openfoam.com                      |
|    \\/     M anipulation  |                                                 |
\*---------------------------------------------------------------------------*/
FoamFile
{
    version     2.0;
    format      ascii;
    arch        "LSB;label=32;scalar=64";
    class       volVectorField;
    location    "0";
    object      U;
}
// * * * * * * * * * * * * * * * * * * * * * * * * * * * * * * * * * * * * * //

dimensions      [0 1 -1 0 0 0 0];

internalField   uniform (0 0 0);

boundaryField
{
    top
    {
        type            navierSlip;
        wallVelocity    nonuniform List<vector> 
484
(
(-8.59461e-22 0.0129706 0)
(0 0.0137751 0)
(8.625e-22 0.0145796 -0)
(-9.66025e-21 0.0153841 0)
(-8.64935e-22 0.0161887 0)
(-7.87916e-21 0.0169932 0)
(8.34967e-21 0.0177978 -0)
(-8.67797e-22 0.0186024 0)
(8.68592e-22 0.019407 -0)
(-8.22154e-21 0.0202116 0)
(0 0.0210163 0)
(0 0.0218209 0)
(-1.48777e-20 0.0226255 0)
(0 0.0234302 0)
(-2.27812e-20 0.0242348 0)
(1.18687e-20 0.0250395 -0)
(-1.74635e-21 0.0258441 0)
(2.23037e-20 0.0266488 -0)
(-1.99019e-20 0.0274534 0)
(0 0.0282581 0)
(0 0.0290628 0)
(-1.17e-20 0.0298675 0)
(0 0.0306721 0)
(1.75129e-21 0.0314768 -0)
(-1.75186e-21 0.0322815 0)
(1.79637e-20 0.0330862 -0)
(0 0.0338909 0)
(-1.5377e-20 0.0346956 0)
(1.67421e-20 0.0355002 -0)
(-1.81253e-20 0.0363049 0)
(1.75473e-21 0.0371096 -0)
(1.5676e-20 0.0379143 -0)
(1.53502e-20 0.038719 -0)
(-1.75591e-21 0.0395237 0)
(0 0.0403284 0)
(-1.26926e-20 0.0411331 0)
(2.65869e-20 0.0419378 -0)
(-2.78102e-20 0.0427425 0)
(-2.72963e-20 0.0435472 0)
(0 0.0443519 0)
(3.51632e-21 0.0451566 -0)
(0 0.0459613 0)
(-2.54175e-20 0.046766 0)
(0 0.0475707 0)
(-3.51843e-21 0.0483754 0)
(-2.41697e-20 0.0491801 0)
(-2.37806e-20 0.0499848 0)
(0 0.0507895 0)
(4.60775e-20 0.0515942 -0)
(-4.18492e-20 0.0523989 0)
(0 0.0532037 0)
(0 0.0540084 0)
(-3.52189e-21 0.0548131 0)
(-2.1372e-20 0.0556178 0)
(0 0.0564225 0)
(0 0.0572272 0)
(0 0.0580319 0)
(-3.52368e-21 0.0588366 0)
(0 0.0596413 0)
(0 0.0604461 0)
(0 0.0612508 0)
(-3.52493e-21 0.0620555 0)
(0 0.0628602 0)
(3.73411e-20 0.0636649 -0)
(-3.33492e-20 0.0644696 0)
(0 0.0652743 0)
(0 0.066079 0)
(0 0.0668838 0)
(0 0.0676885 0)
(-3.5271e-21 0.0684932 0)
(0 0.0692979 0)
(0 0.0701026 0)
(0 0.0709073 0)
(-3.52803e-21 0.071712 0)
(3.27829e-20 0.0725168 -0)
(3.59516e-20 0.0733215 -0)
(0 0.0741262 0)
(-3.17267e-20 0.0749309 0)
(-3.13896e-20 0.0757356 0)
(0 0.0765403 0)
(-3.52948e-21 0.0773451 0)
(0 0.0781498 0)
(0 0.0789545 0)
(-2.98061e-20 0.0797592 0)
(0 0.0805639 0)
(3.53039e-21 0.0813686 -0)
(0 0.0821734 0)
(-2.86498e-20 0.0829781 0)
(0 0.0837828 0)
(5.62094e-20 0.0845875 -0)
(0 0.0853922 0)
(0 0.0861969 0)
(-3.53153e-21 0.0870017 0)
(0 0.0878064 0)
(7.06366e-21 0.0886111 -0)
(0 0.0894158 0)
(-7.06423e-21 0.0902205 0)
(7.06451e-21 0.0910253 -0)
(4.47114e-20 0.09183 -0)
(0 0.0926347 0)
(0 0.0934394 0)
(7.06558e-21 0.0942441 -0)
(-7.06584e-21 0.0950489 0)
(7.06609e-21 0.0958536 -0)
(0 0.0966583 0)
(4.17171e-20 0.097463 -0)
(7.06682e-21 0.0982677 -0)
(4.09241e-20 0.0990724 -0)
(7.06729e-21 0.0998772 -0)
(0 0.100682 0)
(-4.68495e-20 0.101487 0)
(8.5894e-20 0.102291 -0)
(5.31863e-20 0.103096 -0)
(-7.0684e-21 0.103901 0)
(0 0.104705 0)
(7.06882e-21 0.10551 -0)
(3.76528e-20 0.106315 -0)
(5.14551e-20 0.10712 -0)
(0 0.107924 0)
(8.03881e-20 0.108729 -0)
(9.38849e-20 0.109534 -0)
(0 0.110339 0)
(3.57088e-20 0.111143 -0)
(0 0.111948 0)
(7.07056e-21 0.112753 -0)
(7.66683e-20 0.113557 -0)
(4.86458e-20 0.114362 -0)
(-4.12844e-20 0.115167 0)
(3.39267e-20 0.115972 -0)
(7.07143e-21 0.116776 -0)
(7.38019e-20 0.117581 -0)
(-8.03238e-20 0.118386 0)
(-7.97814e-20 0.11919 0)
(4.66953e-20 0.119995 -0)
(3.2287e-20 0.1208 -0)
(7.0724e-21 0.121605 -0)
(-7.07255e-21 0.122409 0)
(0 0.123214 0)
(7.07286e-21 0.124019 -0)
(-7.073e-21 0.124823 0)
(7.07315e-21 0.125628 -0)
(-7.52113e-20 0.126433 0)
(0 0.127238 0)
(-7.07358e-21 0.128042 0)
(7.07372e-21 0.128847 -0)
(-7.07386e-21 0.129652 0)
(0 0.130457 0)
(7.07413e-21 0.131261 -0)
(-7.07426e-21 0.132066 0)
(-6.44928e-20 0.132871 0)
(-7.07452e-21 0.133675 0)
(0 0.13448 0)
(7.07477e-21 0.135285 -0)
(6.98744e-20 0.13609 -0)
(-7.07502e-21 0.136894 0)
(6.90577e-20 0.137699 -0)
(-6.15812e-20 0.138504 0)
(-7.07538e-21 0.139308 0)
(7.0755e-21 0.140113 -0)
(-7.07562e-21 0.140918 0)
(-6.70971e-20 0.141723 0)
(7.07585e-21 0.142527 -0)
(-7.07596e-21 0.143332 0)
(-6.59733e-20 0.144137 0)
(7.07618e-21 0.144942 -0)
(0 0.145746 0)
(-7.0764e-21 0.146551 0)
(7.0765e-21 0.147356 -0)
(-7.12582e-20 0.14816 0)
(0 0.148965 0)
(-5.64151e-20 0.14977 0)
(-7.07692e-21 0.150575 0)
(-5.57398e-20 0.151379 0)
(-6.24847e-20 0.152184 0)
(-7.07722e-21 0.152989 0)
(0 0.153793 0)
(7.07741e-21 0.154598 -0)
(-7.0775e-21 0.155403 0)
(7.0776e-21 0.156208 -0)
(0 0.157012 0)
(-7.07779e-21 0.157817 0)
(7.07788e-21 0.158622 -0)
(-7.07797e-21 0.159427 0)
(5.93465e-20 0.160231 -0)
(7.07815e-21 0.161036 -0)
(0 0.161841 0)
(-7.07832e-21 0.162645 0)
(7.07841e-21 0.16345 -0)
(0 0.164255 0)
(-7.07858e-21 0.16506 0)
(7.07866e-21 0.165864 -0)
(-6.41329e-20 0.166669 0)
(7.07883e-21 0.167474 -0)
(-1.13017e-19 0.168278 0)
(-7.07899e-21 0.169083 0)
(0 0.169888 0)
(6.27884e-20 0.170693 -0)
(-1.10896e-19 0.171497 0)
(-7.07931e-21 0.172302 0)
(-1.02785e-19 0.173107 0)
(-7.07946e-21 0.173912 0)
(1.15932e-19 0.174716 -0)
(7.07961e-21 0.175521 -0)
(-1.22018e-19 0.176326 0)
(0 0.17713 0)
(1.41597e-20 0.177935 -0)
(0 0.17874 0)
(0 0.179545 0)
(-1.19613e-19 0.180349 0)
(0 0.181154 0)
(1.41604e-20 0.181959 -0)
(-1.0406e-19 0.182763 0)
(0 0.183568 0)
(0 0.184373 0)
(-1.41609e-20 0.185178 0)
(0 0.185982 0)
(-1.01818e-19 0.186787 0)
(1.41613e-20 0.187592 -0)
(1.00948e-19 0.188397 -0)
(-1.41616e-20 0.189201 0)
(0 0.190006 0)
(0 0.190811 0)
(0 0.191615 0)
(1.41621e-20 0.19242 -0)
(0 0.193225 0)
(-9.80176e-20 0.19403 0)
(-1.41624e-20 0.194834 0)
(9.72113e-20 0.195639 -0)
(1.41627e-20 0.196444 -0)
(0 0.197248 0)
(9.60263e-20 0.198053 -0)
(-1.4163e-20 0.198858 0)
(0 0.199663 0)
(-1.8974e-19 0.200467 0)
(1.08654e-19 0.201272 -0)
(0 0.202077 0)
(-9.3741e-20 0.202882 0)
(-1.41637e-20 0.203686 0)
(-9.30032e-20 0.204491 0)
(0 0.205296 0)
(1.4164e-20 0.2061 -0)
(-9.19181e-20 0.206905 0)
(7.73977e-20 0.20771 -0)
(-1.82417e-19 0.208515 0)
(9.08579e-20 0.209319 -0)
(0 0.210124 0)
(1.41647e-20 0.210929 -0)
(-8.9822e-20 0.211733 0)
(8.94819e-20 0.212538 -0)
(-1.4165e-20 0.213343 0)
(-8.88094e-20 0.214148 0)
(1.02642e-19 0.214952 -0)
(-1.76294e-19 0.215757 0)
(0 0.216562 0)
(-8.74942e-20 0.217367 0)
(-1.41656e-20 0.218171 0)
(0 0.218976 0)
(1.41658e-20 0.219781 -0)
(0 0.220585 0)
(-8.59041e-20 0.22139 0)
(-1.41661e-20 0.222195 0)
(0 0.223 0)
(0 0.223804 0)
(1.41663e-20 0.224609 -0)
(0 0.225414 0)
(0 0.226219 0)
(1.53379e-19 0.227023 -0)
(0 0.227828 0)
(-8.31828e-20 0.228633 0)
(9.7058e-20 0.229437 -0)
(-8.26014e-20 0.230242 0)
(-1.4167e-20 0.231047 0)
(8.2028e-20 0.231852 -0)
(-1.63489e-19 0.232656 0)
(1.41673e-20 0.233461 -0)
(-1.62365e-19 0.234266 0)
(0 0.23507 0)
(0 0.235875 0)
(1.46542e-19 0.23668 -0)
(-1.60165e-19 0.237485 0)
(9.39796e-20 0.238289 -0)
(7.95432e-20 0.239094 -0)
(-7.92764e-20 0.239899 0)
(6.48433e-20 0.240704 -0)
(-1.57496e-19 0.241508 0)
(0 0.242313 0)
(-1.41683e-20 0.243118 0)
(-1.55937e-19 0.243922 0)
(-1.55425e-19 0.244727 0)
(-1.41685e-20 0.245532 0)
(0 0.246337 0)
(-1.53906e-19 0.247141 0)
(1.41687e-20 0.247946 -0)
(-1.52911e-19 0.248751 0)
(-1.41689e-20 0.249555 0)
(0 0.25036 0)
(0 0.251165 0)
(-1.50957e-19 0.25197 0)
(1.41692e-20 0.252774 -0)
(0 0.253579 0)
(1.49525e-19 0.254384 -0)
(-1.41694e-20 0.255189 0)
(0 0.255993 0)
(1.41695e-20 0.256798 -0)
(0 0.257603 0)
(0 0.258407 0)
(-1.41697e-20 0.259212 0)
(0 0.260017 0)
(-1.45834e-19 0.260822 0)
(0 0.261626 0)
(1.417e-20 0.262431 -0)
(-1.44496e-19 0.263236 0)
(1.29886e-19 0.26404 -0)
(-1.43618e-19 0.264845 0)
(0 0.26565 0)
(1.56921e-19 0.266455 -0)
(0 0.267259 0)
(-1.41894e-19 0.268064 0)
(1.41705e-20 0.268869 -0)
(-1.41047e-19 0.269674 0)
(-1.40627e-19 0.270478 0)
(1.54381e-19 0.271283 -0)
(-1.39795e-19 0.272088 0)
(1.39383e-19 0.272892 -0)
(1.24802e-19 0.273697 -0)
(-1.38566e-19 0.274502 0)
(1.4171e-20 0.275307 -0)
(0 0.276111 0)
(0 0.276916 0)
(0 0.277721 0)
(-1.41713e-20 0.278526 0)
(0 0.27933 0)
(1.3578e-19 0.280135 -0)
(1.41714e-20 0.28094 -0)
(0 0.281744 0)
(-1.41715e-20 0.282549 0)
(0 0.283354 0)
(1.33857e-19 0.284159 -0)
(1.41717e-20 0.284963 -0)
(0 0.285768 0)
(0 0.286573 0)
(-1.41719e-20 0.287377 0)
(0 0.288182 0)
(-1.31621e-19 0.288987 0)
(1.45427e-19 0.289792 -0)
(0 0.290596 0)
(0 0.291401 0)
(-1.41722e-20 0.292206 0)
(-1.29813e-19 0.293011 0)
(1.41723e-20 0.293815 -0)
(0 0.29462 0)
(0 0.295425 0)
(-1.28403e-19 0.296229 0)
(1.13882e-19 0.297034 -0)
(-1.27709e-19 0.297839 0)
(1.41726e-20 0.298644 -0)
(0 0.299448 0)
(-1.26682e-19 0.300253 0)
(1.1217e-19 0.301058 -0)
(-1.26006e-19 0.301862 0)
(0 0.302667 0)
(0 0.303472 0)
(1.3918e-19 0.304277 -0)
(-1.24677e-19 0.305081 0)
(-1.41731e-20 0.305886 0)
(0 0.306691 0)
(-1.23698e-19 0.307496 0)
(1.37548e-19 0.3083 -0)
(-1.23054e-19 0.309105 0)
(0 0.30991 0)
(-1.41734e-20 0.310714 0)
(-1.221e-19 0.311519 0)
(0 0.312324 0)
(1.41735e-20 0.313129 -0)
(1.21161e-19 0.313933 -0)
(0 0.314738 0)
(-1.41737e-20 0.315543 0)
(-1.20237e-19 0.316348 0)
(1.41738e-20 0.317152 -0)
(0 0.317957 0)
(0 0.318762 0)
(1.04852e-19 0.319566 -0)
(-1.18727e-19 0.320371 0)
(1.18429e-19 0.321176 -0)
(-1.18133e-19 0.321981 0)
(1.41741e-20 0.322785 -0)
(0 0.32359 0)
(-1.41742e-20 0.324395 0)
(1.16964e-19 0.325199 -0)
(0 0.326004 0)
(1.30562e-19 0.326809 -0)
(0 0.327614 0)
(-1.15818e-19 0.328418 0)
(0 0.329223 0)
(1.01078e-19 0.330028 -0)
(0 0.330833 0)
(1.41745e-20 0.331637 -0)
(1.14416e-19 0.332442 -0)
(-1.14139e-19 0.333247 0)
(9.96899e-20 0.334051 -0)
(-1.13591e-19 0.334856 0)
(1.41747e-20 0.335661 -0)
(0 0.336466 0)
(2.25556e-19 0.33727 -0)
(0 0.338075 0)
(-2.38659e-19 0.33888 0)
(2.23953e-19 0.339684 -0)
(-2.23423e-19 0.340489 0)
(1.4175e-20 0.341294 -0)
(2.22372e-19 0.342099 -0)
(-1.41751e-20 0.342903 0)
(0 0.343708 0)
(0 0.344513 0)
(-2.06124e-19 0.345318 0)
(0 0.346122 0)
(2.19277e-19 0.346927 -0)
(-2.1877e-19 0.347732 0)
(-1.41754e-20 0.348536 0)
(2.17762e-19 0.349341 -0)
(1.41754e-20 0.350146 -0)
(0 0.350951 0)
(1.41755e-20 0.351755 -0)
(2.15774e-19 0.35256 -0)
(0 0.353365 0)
(0 0.35417 0)
(-1.85955e-19 0.354974 0)
(0 0.355779 0)
(2.83515e-20 0.356584 -0)
(0 0.357388 0)
(0 0.358193 0)
(2.83517e-20 0.358998 -0)
(0 0.359803 0)
(2.83518e-20 0.360607 -0)
(2.10489e-19 0.361412 -0)
(0 0.362217 0)
(-1.81204e-19 0.363021 0)
(2.09092e-19 0.363826 -0)
(2.08631e-19 0.364631 -0)
(2.83523e-20 0.365436 -0)
(2.83523e-20 0.36624 -0)
(0 0.367045 0)
(0 0.36785 0)
(0 0.368655 0)
(2.34257e-19 0.369459 -0)
(2.83527e-20 0.370264 -0)
(0 0.371069 0)
(0 0.371873 0)
(0 0.372678 0)
(0 0.373483 0)
(-2.8353e-20 0.374288 0)
(-2.83531e-20 0.375092 0)
(0 0.375897 0)
(0 0.376702 0)
(-2.83533e-20 0.377506 0)
(0 0.378311 0)
(-2.83534e-20 0.379116 0)
(0 0.379921 0)
(3.99622e-19 0.380725 -0)
(-2.27743e-19 0.38153 0)
(0 0.382335 0)
(1.98552e-19 0.38314 -0)
(-2.83538e-20 0.383944 0)
(0 0.384749 0)
(-2.83539e-20 0.385554 0)
(0 0.386358 0)
(-1.96489e-19 0.387163 0)
(1.67727e-19 0.387968 -0)
(-2.83541e-20 0.388773 0)
(0 0.389577 0)
(0 0.390382 0)
(0 0.391187 0)
(3.88137e-19 0.391992 -0)
(-1.65317e-19 0.392796 0)
(4.14904e-19 0.393601 -0)
(0 0.394406 0)
(0 0.39521 0)
(1.92097e-19 0.396015 -0)
(2.83547e-20 0.39682 -0)
(0 0.397625 0)
(2.83548e-20 0.398429 -0)
(-1.90548e-19 0.399234 0)
(2.1852e-19 0.400039 -0)
(1.89783e-19 0.400843 -0)
(0 0.401648 0)
)
;
        slipLength      uniform 5.4e-07;
        value    uniform (0 0 0);
    }
    inlet
    {
        type            zeroGradient;
    }
    bottom
    {
        type            navierSlip;
        value           uniform (0 0 0);
        slipLength      uniform 5.4e-07;
        wallVelocity    uniform (0 0 0);
    }
    outlet
    {
        type            zeroGradient;
    }
    left
    {
        type            wedge;
    }
    right
    {
        type            wedge;
    }
    axis
    {
        type            empty;
    }
}


// ************************************************************************* //
