# Moment      
# CofR        : (0.000000e+00 0.000000e+00 0.000000e+00)
#
# Time        	(total_x total_y total_z)	(pressure_x pressure_y pressure_z)	(viscous_x viscous_y viscous_z)
1e-08         	(2.260356e-29 1.331742e-08 8.486870e-08)	(2.260356e-29 1.331742e-08 0.000000e+00)	(-4.994406e-38 2.138551e-17 8.486870e-08)
2e-08         	(4.804156e-29 2.826479e-08 3.694770e-07)	(4.804156e-29 2.826479e-08 0.000000e+00)	(-1.530371e-37 7.334054e-17 3.694770e-07)
3e-08         	(6.682401e-29 3.934744e-08 9.240999e-07)	(6.682401e-29 3.934744e-08 0.000000e+00)	(-2.821759e-37 1.454475e-16 9.240999e-07)
4e-08         	(8.242130e-29 4.853567e-08 1.760223e-06)	(8.242131e-29 4.853567e-08 0.000000e+00)	(-4.207849e-37 2.271575e-16 1.760223e-06)
5e-08         	(9.649525e-29 5.675960e-08 2.843143e-06)	(9.649525e-29 5.675960e-08 0.000000e+00)	(-5.609798e-37 3.122645e-16 2.843143e-06)
6e-08         	(1.105889e-28 6.511905e-08 4.113234e-06)	(1.105889e-28 6.511904e-08 0.000000e+00)	(-6.981680e-37 3.967612e-16 4.113234e-06)
7e-08         	(1.238021e-28 7.287913e-08 5.504152e-06)	(1.238021e-28 7.287913e-08 0.000000e+00)	(-8.293014e-37 4.777995e-16 5.504152e-06)
8e-08         	(1.366837e-28 8.048081e-08 6.954469e-06)	(1.366837e-28 8.048081e-08 0.000000e+00)	(-9.522316e-37 5.535561e-16 6.954469e-06)
9e-08         	(1.485320e-28 8.738100e-08 8.413336e-06)	(1.485320e-28 8.738100e-08 0.000000e+00)	(-1.065713e-36 6.229869e-16 8.413336e-06)
1e-07         	(1.605800e-28 9.456471e-08 9.842052e-06)	(1.605800e-28 9.456471e-08 0.000000e+00)	(-1.169128e-36 6.857486e-16 9.842052e-06)
1.1e-07       	(1.714003e-28 1.009114e-07 1.121331e-05)	(1.714003e-28 1.009114e-07 0.000000e+00)	(-1.262496e-36 7.418750e-16 1.121331e-05)
1.2e-07       	(1.818531e-28 1.071044e-07 1.250942e-05)	(1.818531e-28 1.071044e-07 0.000000e+00)	(-1.346191e-36 7.917265e-16 1.250942e-05)
1.3e-07       	(1.906895e-28 1.121577e-07 1.372024e-05)	(1.906895e-28 1.121577e-07 0.000000e+00)	(-1.420893e-36 8.357726e-16 1.372024e-05)
1.4e-07       	(1.999378e-28 1.176735e-07 1.484125e-05)	(1.999378e-28 1.176735e-07 0.000000e+00)	(-1.487250e-36 8.746740e-16 1.484125e-05)
1.5e-07       	(2.085980e-28 1.228575e-07 1.587193e-05)	(2.085980e-28 1.228575e-07 0.000000e+00)	(-1.546107e-36 9.089721e-16 1.587193e-05)
1.6e-07       	(2.157260e-28 1.269597e-07 1.681451e-05)	(2.157260e-28 1.269597e-07 0.000000e+00)	(-1.598275e-36 9.391999e-16 1.681451e-05)
1.7e-07       	(2.231115e-28 1.313879e-07 1.767294e-05)	(2.231115e-28 1.313879e-07 0.000000e+00)	(-1.644457e-36 9.659039e-16 1.767294e-05)
1.8e-07       	(2.290756e-28 1.348096e-07 1.845221e-05)	(2.290756e-28 1.348096e-07 0.000000e+00)	(-1.685367e-36 9.895002e-16 1.845221e-05)
1.9e-07       	(2.351791e-28 1.384512e-07 1.915786e-05)	(2.351791e-28 1.384512e-07 0.000000e+00)	(-1.721594e-36 1.010418e-15 1.915786e-05)
2e-07         	(2.405433e-28 1.416111e-07 1.979560e-05)	(2.405433e-28 1.416111e-07 0.000000e+00)	(-1.753710e-36 1.028974e-15 1.979560e-05)
2.1e-07       	(2.451743e-28 1.442874e-07 2.037109e-05)	(2.451743e-28 1.442874e-07 0.000000e+00)	(-1.782193e-36 1.045472e-15 2.037109e-05)
2.2e-07       	(2.497856e-28 1.470364e-07 2.088979e-05)	(2.497856e-28 1.470364e-07 0.000000e+00)	(-1.807454e-36 1.060176e-15 2.088979e-05)
2.3e-07       	(2.540245e-28 1.495732e-07 2.135682e-05)	(2.540245e-28 1.495731e-07 0.000000e+00)	(-1.829857e-36 1.073312e-15 2.135682e-05)
2.4e-07       	(2.577382e-28 1.517702e-07 2.177707e-05)	(2.577382e-28 1.517702e-07 0.000000e+00)	(-1.849758e-36 1.085040e-15 2.177707e-05)
2.5e-07       	(2.605273e-28 1.533058e-07 2.215503e-05)	(2.605273e-28 1.533058e-07 0.000000e+00)	(-1.867449e-36 1.095520e-15 2.215503e-05)
2.6e-07       	(2.638218e-28 1.553039e-07 2.249480e-05)	(2.638218e-28 1.553039e-07 0.000000e+00)	(-1.883134e-36 1.104931e-15 2.249480e-05)
2.7e-07       	(2.664074e-28 1.567996e-07 2.280014e-05)	(2.664074e-28 1.567996e-07 0.000000e+00)	(-1.897067e-36 1.113368e-15 2.280014e-05)
2.8e-07       	(2.689809e-28 1.583384e-07 2.307446e-05)	(2.689809e-28 1.583384e-07 0.000000e+00)	(-1.909432e-36 1.120944e-15 2.307446e-05)
2.9e-07       	(2.711182e-28 1.595803e-07 2.332087e-05)	(2.711182e-28 1.595803e-07 0.000000e+00)	(-1.920420e-36 1.127738e-15 2.332087e-05)
3e-07         	(2.729034e-28 1.605879e-07 2.354216e-05)	(2.729034e-28 1.605879e-07 0.000000e+00)	(-1.930168e-36 1.133844e-15 2.354216e-05)
3.1e-07       	(2.751272e-28 1.619812e-07 2.374087e-05)	(2.751272e-28 1.619812e-07 0.000000e+00)	(-1.938794e-36 1.139349e-15 2.374087e-05)
3.2e-07       	(2.771808e-28 1.632760e-07 2.391929e-05)	(2.771808e-28 1.632760e-07 0.000000e+00)	(-1.946422e-36 1.144311e-15 2.391929e-05)
3.3e-07       	(2.777588e-28 1.634373e-07 2.407948e-05)	(2.777588e-28 1.634373e-07 0.000000e+00)	(-1.953226e-36 1.148737e-15 2.407948e-05)
3.4e-07       	(2.794484e-28 1.645061e-07 2.422328e-05)	(2.794484e-28 1.645061e-07 0.000000e+00)	(-1.959220e-36 1.152740e-15 2.422328e-05)
3.5e-07       	(2.804803e-28 1.650818e-07 2.435238e-05)	(2.804803e-28 1.650818e-07 0.000000e+00)	(-1.964531e-36 1.156335e-15 2.435238e-05)
3.6e-07       	(2.819668e-28 1.660405e-07 2.446827e-05)	(2.819668e-28 1.660405e-07 0.000000e+00)	(-1.969198e-36 1.159588e-15 2.446827e-05)
3.7e-07       	(2.827245e-28 1.664451e-07 2.457230e-05)	(2.827245e-28 1.664451e-07 0.000000e+00)	(-1.973344e-36 1.162494e-15 2.457230e-05)
3.8e-07       	(2.830761e-28 1.665484e-07 2.466568e-05)	(2.830761e-28 1.665484e-07 0.000000e+00)	(-1.977007e-36 1.165103e-15 2.466568e-05)
3.9e-07       	(2.844818e-28 1.675019e-07 2.474950e-05)	(2.844818e-28 1.675019e-07 0.000000e+00)	(-1.980196e-36 1.167481e-15 2.474950e-05)
4e-07         	(2.847803e-28 1.675968e-07 2.482474e-05)	(2.847803e-28 1.675967e-07 0.000000e+00)	(-1.983024e-36 1.169603e-15 2.482474e-05)
4.1e-07       	(2.857897e-28 1.682671e-07 2.489227e-05)	(2.857897e-28 1.682671e-07 0.000000e+00)	(-1.985498e-36 1.171521e-15 2.489227e-05)
4.2e-07       	(2.861212e-28 1.684151e-07 2.495289e-05)	(2.861212e-28 1.684151e-07 0.000000e+00)	(-1.987675e-36 1.173241e-15 2.495289e-05)
4.3e-07       	(2.866487e-28 1.687291e-07 2.500730e-05)	(2.866487e-28 1.687291e-07 0.000000e+00)	(-1.989600e-36 1.174774e-15 2.500730e-05)
4.4e-07       	(2.869554e-28 1.688792e-07 2.505614e-05)	(2.869554e-28 1.688792e-07 0.000000e+00)	(-1.991271e-36 1.176165e-15 2.505614e-05)
4.5e-07       	(2.876708e-28 1.693616e-07 2.509997e-05)	(2.876708e-28 1.693616e-07 0.000000e+00)	(-1.992714e-36 1.177431e-15 2.509997e-05)
4.6e-07       	(2.880307e-28 1.695717e-07 2.513931e-05)	(2.880307e-28 1.695717e-07 0.000000e+00)	(-1.993984e-36 1.178560e-15 2.513931e-05)
4.7e-07       	(2.883873e-28 1.697868e-07 2.517463e-05)	(2.883873e-28 1.697868e-07 0.000000e+00)	(-1.995081e-36 1.179584e-15 2.517463e-05)
4.8e-07       	(2.885696e-28 1.698705e-07 2.520633e-05)	(2.885696e-28 1.698705e-07 0.000000e+00)	(-1.996064e-36 1.180480e-15 2.520633e-05)
4.9e-07       	(2.881996e-28 1.695241e-07 2.523478e-05)	(2.881996e-28 1.695241e-07 0.000000e+00)	(-1.996939e-36 1.181269e-15 2.523478e-05)
5e-07         	(2.897740e-28 1.707198e-07 2.526031e-05)	(2.897740e-28 1.707198e-07 0.000000e+00)	(-1.997602e-36 1.182055e-15 2.526031e-05)
5.1e-07       	(2.890433e-28 1.700990e-07 2.528323e-05)	(2.890433e-28 1.700990e-07 0.000000e+00)	(-1.998261e-36 1.182693e-15 2.528323e-05)
5.2e-07       	(2.897924e-28 1.706518e-07 2.530380e-05)	(2.897924e-28 1.706518e-07 0.000000e+00)	(-1.998793e-36 1.183295e-15 2.530380e-05)
5.3e-07       	(2.891069e-28 1.700751e-07 2.532227e-05)	(2.891069e-28 1.700751e-07 0.000000e+00)	(-1.999291e-36 1.183804e-15 2.532227e-05)
5.4e-07       	(2.895578e-28 1.703998e-07 2.533884e-05)	(2.895578e-28 1.703998e-07 0.000000e+00)	(-1.999686e-36 1.184289e-15 2.533884e-05)
5.5e-07       	(2.900214e-28 1.707378e-07 2.535367e-05)	(2.900214e-28 1.707378e-07 0.000000e+00)	(-2.000008e-36 1.184738e-15 2.535367e-05)
5.6e-07       	(2.897230e-28 1.704767e-07 2.536698e-05)	(2.897230e-28 1.704767e-07 0.000000e+00)	(-2.000322e-36 1.185109e-15 2.536698e-05)
5.7e-07       	(2.901362e-28 1.707805e-07 2.537894e-05)	(2.901362e-28 1.707805e-07 0.000000e+00)	(-2.000557e-36 1.185469e-15 2.537894e-05)
5.8e-07       	(2.904218e-28 1.709857e-07 2.538967e-05)	(2.904218e-28 1.709857e-07 0.000000e+00)	(-2.000760e-36 1.185789e-15 2.538967e-05)
5.9e-07       	(2.902082e-28 1.707987e-07 2.539931e-05)	(2.902082e-28 1.707987e-07 0.000000e+00)	(-2.000947e-36 1.186063e-15 2.539931e-05)
6e-07         	(2.906284e-28 1.711142e-07 2.540796e-05)	(2.906284e-28 1.711142e-07 0.000000e+00)	(-2.001095e-36 1.186318e-15 2.540796e-05)
6.1e-07       	(2.906972e-28 1.711538e-07 2.541573e-05)	(2.906972e-28 1.711538e-07 0.000000e+00)	(-2.001214e-36 1.186550e-15 2.541573e-05)
6.2e-07       	(2.909411e-28 1.713332e-07 2.542271e-05)	(2.909411e-28 1.713332e-07 0.000000e+00)	(-2.001318e-36 1.186755e-15 2.542271e-05)
6.3e-07       	(2.905373e-28 1.710024e-07 2.542898e-05)	(2.905373e-28 1.710024e-07 0.000000e+00)	(-2.001409e-36 1.186933e-15 2.542898e-05)
6.4e-07       	(2.905580e-28 1.710078e-07 2.543460e-05)	(2.905580e-28 1.710078e-07 0.000000e+00)	(-2.001503e-36 1.187079e-15 2.543460e-05)
6.5e-07       	(2.908830e-28 1.712549e-07 2.543966e-05)	(2.908830e-28 1.712549e-07 0.000000e+00)	(-2.001552e-36 1.187234e-15 2.543966e-05)
6.6e-07       	(2.909893e-28 1.713303e-07 2.544419e-05)	(2.909893e-28 1.713303e-07 0.000000e+00)	(-2.001592e-36 1.187371e-15 2.544419e-05)
6.7e-07       	(2.910895e-28 1.714017e-07 2.544826e-05)	(2.910895e-28 1.714017e-07 0.000000e+00)	(-2.001626e-36 1.187493e-15 2.544826e-05)
6.8e-07       	(2.909622e-28 1.712943e-07 2.545192e-05)	(2.909622e-28 1.712943e-07 0.000000e+00)	(-2.001647e-36 1.187605e-15 2.545192e-05)
6.9e-07       	(2.913959e-28 1.716306e-07 2.545520e-05)	(2.913959e-28 1.716306e-07 0.000000e+00)	(-2.001663e-36 1.187705e-15 2.545520e-05)
7e-07         	(2.908958e-28 1.712300e-07 2.545815e-05)	(2.908958e-28 1.712300e-07 0.000000e+00)	(-2.001691e-36 1.187782e-15 2.545815e-05)
7.1e-07       	(2.903988e-28 1.708322e-07 2.546080e-05)	(2.903988e-28 1.708322e-07 0.000000e+00)	(-2.001731e-36 1.187835e-15 2.546080e-05)
7.2e-07       	(2.907094e-28 1.710730e-07 2.546318e-05)	(2.907094e-28 1.710730e-07 0.000000e+00)	(-2.001734e-36 1.187908e-15 2.546318e-05)
7.3e-07       	(2.916694e-28 1.718275e-07 2.546531e-05)	(2.916694e-28 1.718275e-07 0.000000e+00)	(-2.001696e-36 1.188004e-15 2.546531e-05)
7.4e-07       	(2.903293e-28 1.707650e-07 2.546723e-05)	(2.903293e-28 1.707650e-07 0.000000e+00)	(-2.001749e-36 1.188018e-15 2.546723e-05)
7.5e-07       	(2.909503e-28 1.712522e-07 2.546895e-05)	(2.909503e-28 1.712522e-07 0.000000e+00)	(-2.001732e-36 1.188080e-15 2.546895e-05)
7.6e-07       	(2.913064e-28 1.715309e-07 2.547049e-05)	(2.913064e-28 1.715309e-07 0.000000e+00)	(-2.001704e-36 1.188145e-15 2.547049e-05)
7.7e-07       	(2.905353e-28 1.709190e-07 2.547188e-05)	(2.905353e-28 1.709190e-07 0.000000e+00)	(-2.001723e-36 1.188166e-15 2.547188e-05)
7.8e-07       	(2.907861e-28 1.711147e-07 2.547312e-05)	(2.907861e-28 1.711147e-07 0.000000e+00)	(-2.001723e-36 1.188198e-15 2.547312e-05)
7.9e-07       	(2.915346e-28 1.717038e-07 2.547424e-05)	(2.915346e-28 1.717038e-07 0.000000e+00)	(-2.001686e-36 1.188256e-15 2.547424e-05)
8e-07         	(2.912593e-28 1.714848e-07 2.547524e-05)	(2.912593e-28 1.714848e-07 0.000000e+00)	(-2.001666e-36 1.188296e-15 2.547524e-05)
8.1e-07       	(2.908355e-28 1.711480e-07 2.547614e-05)	(2.908355e-28 1.711480e-07 0.000000e+00)	(-2.001695e-36 1.188293e-15 2.547614e-05)
8.2e-07       	(2.911788e-28 1.714179e-07 2.547694e-05)	(2.911788e-28 1.714179e-07 0.000000e+00)	(-2.001670e-36 1.188331e-15 2.547694e-05)
8.3e-07       	(2.911441e-28 1.713890e-07 2.547765e-05)	(2.911441e-28 1.713890e-07 0.000000e+00)	(-2.001667e-36 1.188347e-15 2.547765e-05)
8.4e-07       	(2.911302e-28 1.713767e-07 2.547830e-05)	(2.911302e-28 1.713767e-07 0.000000e+00)	(-2.001660e-36 1.188366e-15 2.547830e-05)
8.5e-07       	(2.910066e-28 1.712779e-07 2.547888e-05)	(2.910066e-28 1.712779e-07 0.000000e+00)	(-2.001666e-36 1.188372e-15 2.547888e-05)
8.6e-07       	(2.909662e-28 1.712451e-07 2.547940e-05)	(2.909662e-28 1.712451e-07 0.000000e+00)	(-2.001654e-36 1.188391e-15 2.547940e-05)
8.7e-07       	(2.912769e-28 1.714896e-07 2.547987e-05)	(2.912769e-28 1.714896e-07 0.000000e+00)	(-2.001634e-36 1.188414e-15 2.547987e-05)
8.8e-07       	(2.906743e-28 1.710127e-07 2.548030e-05)	(2.906743e-28 1.710127e-07 0.000000e+00)	(-2.001648e-36 1.188410e-15 2.548030e-05)
8.9e-07       	(2.911324e-28 1.713739e-07 2.548068e-05)	(2.911324e-28 1.713739e-07 0.000000e+00)	(-2.001636e-36 1.188426e-15 2.548068e-05)
9e-07         	(2.915469e-28 1.717008e-07 2.548102e-05)	(2.915469e-28 1.717008e-07 0.000000e+00)	(-2.001606e-36 1.188455e-15 2.548102e-05)
9.1e-07       	(2.914937e-28 1.716583e-07 2.548133e-05)	(2.914937e-28 1.716583e-07 0.000000e+00)	(-2.001598e-36 1.188464e-15 2.548133e-05)
9.2e-07       	(2.907970e-28 1.711072e-07 2.548161e-05)	(2.907970e-28 1.711072e-07 0.000000e+00)	(-2.001625e-36 1.188446e-15 2.548161e-05)
9.3e-07       	(2.910052e-28 1.712711e-07 2.548185e-05)	(2.910052e-28 1.712711e-07 0.000000e+00)	(-2.001611e-36 1.188461e-15 2.548185e-05)
9.4e-07       	(2.914693e-28 1.716374e-07 2.548208e-05)	(2.914693e-28 1.716374e-07 0.000000e+00)	(-2.001585e-36 1.188483e-15 2.548208e-05)
9.5e-07       	(2.911028e-28 1.713476e-07 2.548228e-05)	(2.911028e-28 1.713476e-07 0.000000e+00)	(-2.001584e-36 1.188486e-15 2.548228e-05)
9.6e-07       	(2.916529e-28 1.717817e-07 2.548246e-05)	(2.916529e-28 1.717817e-07 0.000000e+00)	(-2.001567e-36 1.188501e-15 2.548246e-05)
9.7e-07       	(2.908153e-28 1.711198e-07 2.548262e-05)	(2.908153e-28 1.711198e-07 0.000000e+00)	(-2.001584e-36 1.188489e-15 2.548262e-05)
9.8e-07       	(2.913172e-28 1.715159e-07 2.548277e-05)	(2.913172e-28 1.715159e-07 0.000000e+00)	(-2.001575e-36 1.188497e-15 2.548277e-05)
9.9e-07       	(2.905967e-28 1.709464e-07 2.548290e-05)	(2.905967e-28 1.709464e-07 0.000000e+00)	(-2.001597e-36 1.188480e-15 2.548290e-05)
1e-06         	(2.914610e-28 1.716290e-07 2.548302e-05)	(2.914610e-28 1.716290e-07 0.000000e+00)	(-2.001564e-36 1.188507e-15 2.548302e-05)
1.01e-06      	(2.916368e-28 1.717677e-07 2.548312e-05)	(2.916368e-28 1.717677e-07 0.000000e+00)	(-2.001552e-36 1.188517e-15 2.548312e-05)
1.02e-06      	(2.907805e-28 1.710910e-07 2.548322e-05)	(2.907805e-28 1.710910e-07 0.000000e+00)	(-2.001581e-36 1.188494e-15 2.548322e-05)
1.03e-06      	(2.911099e-28 1.713511e-07 2.548330e-05)	(2.911099e-28 1.713511e-07 0.000000e+00)	(-2.001567e-36 1.188506e-15 2.548330e-05)
1.04e-06      	(2.911392e-28 1.713740e-07 2.548338e-05)	(2.911392e-28 1.713740e-07 0.000000e+00)	(-2.001560e-36 1.188511e-15 2.548338e-05)
1.05e-06      	(2.910310e-28 1.712884e-07 2.548345e-05)	(2.910310e-28 1.712884e-07 0.000000e+00)	(-2.001557e-36 1.188514e-15 2.548345e-05)
1.06e-06      	(2.917032e-28 1.718196e-07 2.548351e-05)	(2.917032e-28 1.718196e-07 0.000000e+00)	(-2.001521e-36 1.188543e-15 2.548351e-05)
1.07e-06      	(2.912073e-28 1.714277e-07 2.548357e-05)	(2.912073e-28 1.714277e-07 0.000000e+00)	(-2.001539e-36 1.188528e-15 2.548357e-05)
1.08e-06      	(2.911799e-28 1.714059e-07 2.548362e-05)	(2.911799e-28 1.714059e-07 0.000000e+00)	(-2.001537e-36 1.188530e-15 2.548362e-05)
1.09e-06      	(2.911386e-28 1.713731e-07 2.548366e-05)	(2.911386e-28 1.713731e-07 0.000000e+00)	(-2.001544e-36 1.188524e-15 2.548366e-05)
1.1e-06       	(2.913990e-28 1.715788e-07 2.548371e-05)	(2.913990e-28 1.715788e-07 0.000000e+00)	(-2.001533e-36 1.188533e-15 2.548371e-05)
1.11e-06      	(2.912139e-28 1.714323e-07 2.548374e-05)	(2.912139e-28 1.714323e-07 0.000000e+00)	(-2.001550e-36 1.188518e-15 2.548374e-05)
1.12e-06      	(2.914322e-28 1.716048e-07 2.548377e-05)	(2.914322e-28 1.716048e-07 0.000000e+00)	(-2.001531e-36 1.188534e-15 2.548377e-05)
1.13e-06      	(2.913997e-28 1.715793e-07 2.548380e-05)	(2.913997e-28 1.715793e-07 0.000000e+00)	(-2.001527e-36 1.188536e-15 2.548380e-05)
1.14e-06      	(2.909709e-28 1.712404e-07 2.548383e-05)	(2.909709e-28 1.712404e-07 0.000000e+00)	(-2.001543e-36 1.188524e-15 2.548383e-05)
1.15e-06      	(2.910667e-28 1.713160e-07 2.548385e-05)	(2.910667e-28 1.713160e-07 0.000000e+00)	(-2.001537e-36 1.188528e-15 2.548385e-05)
1.16e-06      	(2.911903e-28 1.714136e-07 2.548388e-05)	(2.911903e-28 1.714136e-07 0.000000e+00)	(-2.001534e-36 1.188530e-15 2.548388e-05)
1.17e-06      	(2.911702e-28 1.713977e-07 2.548390e-05)	(2.911702e-28 1.713977e-07 0.000000e+00)	(-2.001533e-36 1.188531e-15 2.548390e-05)
1.18e-06      	(2.911246e-28 1.713616e-07 2.548391e-05)	(2.911246e-28 1.713616e-07 0.000000e+00)	(-2.001529e-36 1.188534e-15 2.548391e-05)
1.19e-06      	(2.910293e-28 1.712862e-07 2.548393e-05)	(2.910293e-28 1.712862e-07 0.000000e+00)	(-2.001537e-36 1.188527e-15 2.548393e-05)
1.2e-06       	(2.914599e-28 1.716264e-07 2.548394e-05)	(2.914599e-28 1.716264e-07 0.000000e+00)	(-2.001521e-36 1.188540e-15 2.548394e-05)
1.21e-06      	(2.914819e-28 1.716438e-07 2.548395e-05)	(2.914819e-28 1.716438e-07 0.000000e+00)	(-2.001513e-36 1.188546e-15 2.548395e-05)
1.22e-06      	(2.910101e-28 1.712712e-07 2.548397e-05)	(2.910101e-28 1.712712e-07 0.000000e+00)	(-2.001530e-36 1.188532e-15 2.548397e-05)
1.23e-06      	(2.910928e-28 1.713364e-07 2.548398e-05)	(2.910928e-28 1.713364e-07 0.000000e+00)	(-2.001536e-36 1.188528e-15 2.548398e-05)
1.24e-06      	(2.911828e-28 1.714075e-07 2.548399e-05)	(2.911828e-28 1.714075e-07 0.000000e+00)	(-2.001532e-36 1.188531e-15 2.548399e-05)
1.25e-06      	(2.910892e-28 1.713333e-07 2.548399e-05)	(2.910892e-28 1.713333e-07 0.000000e+00)	(-2.001542e-36 1.188523e-15 2.548399e-05)
1.26e-06      	(2.915758e-28 1.717179e-07 2.548400e-05)	(2.915758e-28 1.717179e-07 0.000000e+00)	(-2.001514e-36 1.188545e-15 2.548400e-05)
1.27e-06      	(2.912194e-28 1.714363e-07 2.548401e-05)	(2.912194e-28 1.714363e-07 0.000000e+00)	(-2.001526e-36 1.188535e-15 2.548401e-05)
1.28e-06      	(2.910376e-28 1.712927e-07 2.548401e-05)	(2.910376e-28 1.712927e-07 0.000000e+00)	(-2.001538e-36 1.188525e-15 2.548401e-05)
1.29e-06      	(2.912767e-28 1.714818e-07 2.548402e-05)	(2.912767e-28 1.714818e-07 0.000000e+00)	(-2.001515e-36 1.188544e-15 2.548402e-05)
1.3e-06       	(2.913398e-28 1.715315e-07 2.548402e-05)	(2.913398e-28 1.715315e-07 0.000000e+00)	(-2.001515e-36 1.188543e-15 2.548402e-05)
1.31e-06      	(2.909394e-28 1.712149e-07 2.548403e-05)	(2.909394e-28 1.712149e-07 0.000000e+00)	(-2.001546e-36 1.188519e-15 2.548403e-05)
1.32e-06      	(2.910242e-28 1.712821e-07 2.548403e-05)	(2.910242e-28 1.712821e-07 0.000000e+00)	(-2.001531e-36 1.188530e-15 2.548403e-05)
1.33e-06      	(2.915318e-28 1.716830e-07 2.548404e-05)	(2.915318e-28 1.716830e-07 0.000000e+00)	(-2.001520e-36 1.188539e-15 2.548404e-05)
1.34e-06      	(2.911836e-28 1.714080e-07 2.548404e-05)	(2.911836e-28 1.714080e-07 0.000000e+00)	(-2.001522e-36 1.188538e-15 2.548404e-05)
1.35e-06      	(2.908385e-28 1.711351e-07 2.548404e-05)	(2.908385e-28 1.711351e-07 0.000000e+00)	(-2.001547e-36 1.188517e-15 2.548404e-05)
1.36e-06      	(2.913879e-28 1.715693e-07 2.548404e-05)	(2.913879e-28 1.715693e-07 0.000000e+00)	(-2.001517e-36 1.188541e-15 2.548404e-05)
1.37e-06      	(2.914980e-28 1.716564e-07 2.548405e-05)	(2.914980e-28 1.716564e-07 0.000000e+00)	(-2.001504e-36 1.188552e-15 2.548405e-05)
1.38e-06      	(2.909886e-28 1.712539e-07 2.548405e-05)	(2.909886e-28 1.712539e-07 0.000000e+00)	(-2.001524e-36 1.188536e-15 2.548405e-05)
1.39e-06      	(2.911030e-28 1.713443e-07 2.548405e-05)	(2.911030e-28 1.713443e-07 0.000000e+00)	(-2.001528e-36 1.188532e-15 2.548405e-05)
1.4e-06       	(2.913476e-28 1.715375e-07 2.548405e-05)	(2.913476e-28 1.715375e-07 0.000000e+00)	(-2.001518e-36 1.188540e-15 2.548405e-05)
