/*--------------------------------*- C++ -*----------------------------------*\
| =========                 |                                                 |
| \\      /  F ield         | OpenFOAM: The Open Source CFD Toolbox           |
|  \\    /   O peration     | Version:  2206                                  |
|   \\  /    A nd           | Website:  www.openfoam.com                      |
|    \\/     M anipulation  |                                                 |
\*---------------------------------------------------------------------------*/
FoamFile
{
    version     2.0;
    format      ascii;
    arch        "LSB;label=32;scalar=64";
    class       volVectorField;
    location    "0";
    object      U;
}
// * * * * * * * * * * * * * * * * * * * * * * * * * * * * * * * * * * * * * //

dimensions      [0 1 -1 0 0 0 0];

internalField   uniform (0 0 0);

boundaryField
{
    top
    {
        type            navierSlip;
        wallVelocity           nonuniform List<vector> 
968
(
(2.32798e-20 0.0255337 -0)
(-1.74694e-21 0.0263384 0)
(0 0.0271431 0)
(0 0.0279478 0)
(1.74921e-21 0.0287525 -0)
(-2.01104e-20 0.0295572 0)
(0 0.0303619 0)
(0 0.0311666 0)
(0 0.0319713 0)
(-1.75226e-21 0.032776 0)
(0 0.0335807 0)
(1.75328e-21 0.0343854 -0)
(0 0.0351902 0)
(0 0.0359949 0)
(-1.75464e-21 0.0367996 0)
(0 0.0376043 0)
(1.75545e-21 0.0384091 -0)
(0 0.0392138 0)
(-1.7562e-21 0.0400185 0)
(0 0.0408232 0)
(-1.25217e-20 0.041628 0)
(2.62583e-20 0.0424327 -0)
(0 0.0432374 0)
(0 0.0440422 0)
(0 0.0448469 0)
(2.95568e-20 0.0456516 -0)
(2.55889e-20 0.0464564 -0)
(0 0.0472611 0)
(0 0.0480658 0)
(2.08059e-20 0.0488706 -0)
(-2.39307e-20 0.0496753 0)
(2.35492e-20 0.0504801 -0)
(0 0.0512848 0)
(2.63422e-20 0.0520895 -0)
(0 0.0528943 0)
(-2.21375e-20 0.053699 0)
(2.18106e-20 0.0545038 -0)
(-3.52227e-21 0.0553085 0)
(4.237e-20 0.0561132 -0)
(0 0.056918 0)
(2.05943e-20 0.0577227 -0)
(-2.03111e-20 0.0585275 0)
(3.52402e-21 0.0593322 -0)
(3.9535e-20 0.060137 -0)
(-3.90129e-20 0.0609417 0)
(0 0.0617464 0)
(3.44838e-20 0.0625512 -0)
(0 0.0633559 0)
(-3.70555e-20 0.0641607 0)
(4.01226e-20 0.0649654 -0)
(3.61487e-20 0.0657702 -0)
(0 0.0665749 0)
(3.52852e-20 0.0673797 -0)
(0 0.0681844 0)
(-3.52739e-21 0.0689892 0)
(-3.40646e-20 0.0697939 0)
(0 0.0705987 0)
(3.32968e-20 0.0714034 -0)
(0 0.0722081 0)
(3.52853e-21 0.0730129 -0)
(3.22078e-20 0.0738176 -0)
(-3.52895e-21 0.0746224 0)
(0 0.0754271 0)
(0 0.0762319 0)
(3.08619e-20 0.0770366 -0)
(0 0.0778414 0)
(3.52993e-21 0.0786461 -0)
(0 0.0794509 0)
(2.96241e-20 0.0802556 -0)
(0 0.0810604 0)
(2.90416e-20 0.0818651 -0)
(2.52281e-20 0.0826699 -0)
(-2.84817e-20 0.0834746 0)
(3.53114e-21 0.0842794 -0)
(0 0.0850841 0)
(0 0.0858889 0)
(0 0.0866936 0)
(-5.43437e-20 0.0874984 0)
(7.06382e-21 0.0883031 -0)
(-7.06412e-21 0.0891079 0)
(7.0644e-21 0.0899126 -0)
(5.24154e-20 0.0907174 -0)
(-7.06496e-21 0.0915221 0)
(5.85669e-20 0.0923269 -0)
(-7.0655e-21 0.0931316 0)
(7.06576e-21 0.0939364 -0)
(-7.06602e-21 0.0947411 0)
(-7.06628e-21 0.0955459 0)
(4.93508e-20 0.0963506 -0)
(-7.06677e-21 0.0971554 0)
(5.5607e-20 0.0979601 -0)
(-5.52117e-20 0.0987649 0)
(5.48228e-20 0.0995696 -0)
(4.03047e-20 0.100374 -0)
(-3.99277e-20 0.101179 0)
(-7.06816e-21 0.101984 0)
(-3.91914e-20 0.102789 0)
(8.47322e-20 0.103593 -0)
(0 0.104398 0)
(9.74653e-20 0.105203 -0)
(7.06922e-21 0.106008 -0)
(7.06943e-21 0.106812 -0)
(-7.06963e-21 0.107617 0)
(7.06982e-21 0.108422 -0)
(3.64631e-20 0.109227 -0)
(0 0.110031 0)
(4.99713e-20 0.110836 -0)
(-7.07058e-21 0.111641 0)
(-7.7503e-20 0.112446 0)
(3.49154e-20 0.11325 -0)
(-7.63091e-20 0.114055 0)
(3.43267e-20 0.11486 -0)
(-3.40385e-20 0.115665 0)
(-7.07164e-21 0.116469 0)
(0 0.117274 0)
(-3.31975e-20 0.118079 0)
(3.29247e-20 0.118884 -0)
(7.0723e-21 0.119688 -0)
(3.23901e-20 0.120493 -0)
(7.07262e-21 0.121298 -0)
(-7.07277e-21 0.122103 0)
(7.07293e-21 0.122907 -0)
(7.68715e-20 0.123712 -0)
(6.93014e-20 0.124517 -0)
(-6.88108e-20 0.125322 0)
(6.83265e-20 0.126126 -0)
(-6.78483e-20 0.126931 0)
(7.07381e-21 0.127736 -0)
(8.10578e-20 0.128541 -0)
(0 0.129345 0)
(-7.07422e-21 0.13015 0)
(7.07436e-21 0.130955 -0)
(6.51019e-20 0.13176 -0)
(7.07462e-21 0.132564 -0)
(6.42306e-20 0.133369 -0)
(-6.38028e-20 0.134174 0)
(-7.75301e-20 0.134979 0)
(7.71126e-20 0.135784 -0)
(-7.67001e-20 0.136588 0)
(0 0.137393 0)
(7.0755e-21 0.138198 -0)
(-6.13399e-20 0.139003 0)
(7.07574e-21 0.139807 -0)
(-7.47083e-20 0.140612 0)
(7.43235e-20 0.141417 -0)
(-7.07608e-21 0.142222 0)
(0 0.143026 0)
(-7.07631e-21 0.143831 0)
(7.07642e-21 0.144636 -0)
(5.83105e-20 0.145441 -0)
(0 0.146245 0)
(7.07674e-21 0.14705 -0)
(-7.13962e-20 0.147855 0)
(-7.07695e-21 0.14866 0)
(-7.07706e-21 0.149464 0)
(7.07716e-21 0.150269 -0)
(-7.07726e-21 0.151074 0)
(7.07736e-21 0.151879 -0)
(-7.07746e-21 0.152683 0)
(-5.48812e-20 0.153488 0)
(-6.16356e-20 0.154293 0)
(-6.83935e-20 0.155098 0)
(0 0.155902 0)
(-6.0686e-20 0.156707 0)
(-5.32979e-20 0.157512 0)
(5.29909e-20 0.158317 -0)
(7.07822e-21 0.159121 -0)
(-7.07831e-21 0.159926 0)
(-5.20884e-20 0.160731 0)
(5.17935e-20 0.161536 -0)
(7.07857e-21 0.16234 -0)
(0 0.163145 0)
(0 0.16395 0)
(0 0.164755 0)
(-7.07891e-21 0.165559 0)
(7.079e-21 0.166364 -0)
(-7.07908e-21 0.167169 0)
(7.07916e-21 0.167974 -0)
(-7.07924e-21 0.168778 0)
(7.07932e-21 0.169583 -0)
(-7.0794e-21 0.170388 0)
(-1.18181e-19 0.171193 0)
(-7.07956e-21 0.171997 0)
(7.07964e-21 0.172802 -0)
(-1.09557e-19 0.173607 0)
(-1.16131e-19 0.174412 0)
(7.07986e-21 0.175216 -0)
(-7.07994e-21 0.176021 0)
(0 0.176826 0)
(1.41602e-20 0.177631 -0)
(1.20753e-19 0.178435 -0)
(1.41605e-20 0.17924 -0)
(0 0.180045 0)
(-1.41607e-20 0.18085 0)
(-1.04703e-19 0.181654 0)
(1.18403e-19 0.182459 -0)
(-1.03784e-19 0.183264 0)
(-1.41613e-20 0.184069 0)
(-1.0288e-19 0.184874 0)
(0 0.185678 0)
(0 0.186483 0)
(-1.01554e-19 0.187288 0)
(1.4162e-20 0.188093 -0)
(0 0.188897 0)
(-1.41622e-20 0.189702 0)
(-9.98381e-20 0.190507 0)
(1.41625e-20 0.191312 -0)
(-9.90017e-20 0.192116 0)
(-9.85887e-20 0.192921 0)
(0 0.193726 0)
(-1.4163e-20 0.194531 0)
(9.73702e-20 0.195335 -0)
(0 0.19614 0)
(1.41633e-20 0.196945 -0)
(0 0.19775 0)
(-1.41636e-20 0.198554 0)
(9.54049e-20 0.199359 -0)
(1.41638e-20 0.200164 -0)
(1.41639e-20 0.200969 -0)
(1.4164e-20 0.201773 -0)
(9.38889e-20 0.202578 -0)
(9.35174e-20 0.203383 -0)
(-1.41644e-20 0.204188 0)
(0 0.204992 0)
(1.41646e-20 0.205797 -0)
(9.20603e-20 0.206602 -0)
(-1.41648e-20 0.207407 0)
(9.13487e-20 0.208211 -0)
(0 0.209016 0)
(-9.0648e-20 0.209821 0)
(1.41652e-20 0.210626 -0)
(0 0.21143 0)
(8.96168e-20 0.212235 -0)
(-1.41655e-20 0.21304 0)
(0 0.213845 0)
(1.41657e-20 0.214649 -0)
(-1.76556e-19 0.215454 0)
(1.75899e-19 0.216259 -0)
(-1.75247e-19 0.217064 0)
(-1.41661e-20 0.217868 0)
(-8.69783e-20 0.218673 0)
(-7.24931e-20 0.219478 0)
(1.72686e-19 0.220283 -0)
(-8.60285e-20 0.221087 0)
(-1.41666e-20 0.221892 0)
(-8.54068e-20 0.222697 0)
(8.50993e-20 0.223502 -0)
(-1.69588e-19 0.224306 0)
(-7.03239e-20 0.225111 0)
(1.6838e-19 0.225916 -0)
(-1.41671e-20 0.226721 0)
(8.35943e-20 0.227526 -0)
(-1.66599e-19 0.22833 0)
(1.41674e-20 0.229135 -0)
(-8.27166e-20 0.22994 0)
(8.24281e-20 0.230745 -0)
(1.64283e-19 0.231549 -0)
(-1.41677e-20 0.232354 0)
(0 0.233159 0)
(1.41679e-20 0.233964 -0)
(1.62031e-19 0.234768 -0)
(-1.41681e-20 0.235573 0)
(1.60927e-19 0.236378 -0)
(1.60381e-19 0.237183 -0)
(1.41683e-20 0.237987 -0)
(-6.54818e-20 0.238792 0)
(1.41685e-20 0.239597 -0)
(1.58234e-19 0.240402 -0)
(-1.41686e-20 0.241206 0)
(0 0.242011 0)
(1.41688e-20 0.242816 -0)
(0 0.243621 0)
(0 0.244425 0)
(1.40949e-19 0.24523 -0)
(1.54611e-19 0.246035 -0)
(0 0.24684 0)
(0 0.247644 0)
(1.41693e-20 0.248449 -0)
(-1.52614e-19 0.249254 0)
(-1.66292e-19 0.250059 0)
(-1.51635e-19 0.250863 0)
(1.41696e-20 0.251668 -0)
(0 0.252473 0)
(0 0.253278 0)
(0 0.254082 0)
(-1.49241e-19 0.254887 0)
(-1.417e-20 0.255692 0)
(0 0.256497 0)
(1.41701e-20 0.257301 -0)
(0 0.258106 0)
(-1.41703e-20 0.258911 0)
(-1.46467e-19 0.259716 0)
(1.41704e-20 0.26052 -0)
(1.41705e-20 0.261325 -0)
(1.41705e-20 0.26213 -0)
(0 0.262935 0)
(0 0.263739 0)
(1.29622e-19 0.264544 -0)
(-1.43357e-19 0.265349 0)
(1.41709e-20 0.266154 -0)
(0 0.266959 0)
(-1.4171e-20 0.267763 0)
(-1.5581e-19 0.268568 0)
(-1.41711e-20 0.269373 0)
(-1.40795e-19 0.270178 0)
(1.41712e-20 0.270982 -0)
(0 0.271787 0)
(-1.39548e-19 0.272592 0)
(-1.41714e-20 0.273397 0)
(0 0.274201 0)
(1.41716e-20 0.275006 -0)
(1.41716e-20 0.275811 -0)
(1.41717e-20 0.276616 -0)
(-1.37119e-19 0.27742 0)
(1.22551e-19 0.278225 -0)
(-1.36328e-19 0.27903 0)
(0 0.279835 0)
(1.4172e-20 0.280639 -0)
(-1.35159e-19 0.281444 0)
(1.20601e-19 0.282249 -0)
(-1.3439e-19 0.283054 0)
(0 0.283858 0)
(0 0.284663 0)
(1.41723e-20 0.285468 -0)
(0 0.286273 0)
(1.18334e-19 0.287077 -0)
(-1.32136e-19 0.287882 0)
(0 0.288687 0)
(1.41726e-20 0.289492 -0)
(0 0.290296 0)
(0 0.291101 0)
(-1.30315e-19 0.291906 0)
(-1.41728e-20 0.292711 0)
(0 0.293515 0)
(1.41729e-20 0.29432 -0)
(0 0.295125 0)
(-1.4173e-20 0.29593 0)
(0 0.296734 0)
(0 0.297539 0)
(0 0.298344 0)
(0 0.299149 0)
(1.40992e-19 0.299953 -0)
(0 0.300758 0)
(1.11968e-19 0.301563 -0)
(-1.25806e-19 0.302368 0)
(1.41735e-20 0.303173 -0)
(0 0.303977 0)
(-1.24809e-19 0.304782 0)
(1.10307e-19 0.305587 -0)
(0 0.306392 0)
(0 0.307196 0)
(-1.23505e-19 0.308001 0)
(1.37357e-19 0.308806 -0)
(0 0.309611 0)
(1.0837e-19 0.310415 -0)
(-1.22227e-19 0.31122 0)
(1.36086e-19 0.312025 -0)
(-1.21599e-19 0.31283 0)
(0 0.313634 0)
(-1.20976e-19 0.314439 0)
(-1.20667e-19 0.315244 0)
(-1.41743e-20 0.316049 0)
(0 0.316853 0)
(1.41743e-20 0.317658 -0)
(-1.19448e-19 0.318463 0)
(1.04972e-19 0.319268 -0)
(-1.18847e-19 0.320072 0)
(0 0.320877 0)
(0 0.321682 0)
(1.41746e-20 0.322487 -0)
(0 0.323291 0)
(0 0.324096 0)
(-1.41747e-20 0.324901 0)
(0 0.325706 0)
(1.41748e-20 0.32651 -0)
(0 0.327315 0)
(0 0.32812 0)
(-1.15648e-19 0.328925 0)
(1.01191e-19 0.329729 -0)
(0 0.330534 0)
(1.41751e-20 0.331339 -0)
(0 0.332144 0)
(-1.14251e-19 0.332948 0)
(-1.41752e-20 0.333753 0)
(0 0.334558 0)
(1.41753e-20 0.335363 -0)
(1.41753e-20 0.336167 -0)
(1.41754e-20 0.336972 -0)
(0 0.337777 0)
(2.10524e-19 0.338582 -0)
(0 0.339387 0)
(0 0.340191 0)
(1.41756e-20 0.340996 -0)
(-2.22584e-19 0.341801 0)
(-1.41757e-20 0.342606 0)
(-1.41757e-20 0.34341 0)
(-1.41757e-20 0.344215 0)
(0 0.34502 0)
(1.41758e-20 0.345825 -0)
(0 0.346629 0)
(-1.41759e-20 0.347434 0)
(0 0.348239 0)
(0 0.349044 0)
(1.4176e-20 0.349848 -0)
(1.4176e-20 0.350653 -0)
(2.16468e-19 0.351458 -0)
(2.83522e-20 0.352263 -0)
(0 0.353067 0)
(-2.14991e-19 0.353872 0)
(0 0.354677 0)
(-2.83525e-20 0.355482 0)
(0 0.356286 0)
(0 0.357091 0)
(0 0.357896 0)
(0 0.358701 0)
(4.23244e-19 0.359505 -0)
(0 0.36031 0)
(2.8353e-20 0.361115 -0)
(0 0.36192 0)
(0 0.362724 0)
(2.0928e-19 0.363529 -0)
(-2.83533e-20 0.364334 0)
(0 0.365139 0)
(2.07899e-19 0.365943 -0)
(0 0.366748 0)
(0 0.367553 0)
(0 0.368358 0)
(0 0.369162 0)
(2.83538e-20 0.369967 -0)
(0 0.370772 0)
(0 0.371577 0)
(2.04305e-19 0.372381 -0)
(0 0.373186 0)
(0 0.373991 0)
(-2.83542e-20 0.374796 0)
(0 0.3756 0)
(0 0.376405 0)
(2.01689e-19 0.37721 -0)
(0 0.378015 0)
(2.83545e-20 0.37882 -0)
(0 0.379624 0)
(1.99983e-19 0.380429 -0)
(0 0.381234 0)
(0 0.382039 0)
(0 0.382843 0)
(0 0.383648 0)
(-2.83549e-20 0.384453 0)
(1.97476e-19 0.385258 -0)
(0 0.386062 0)
(0 0.386867 0)
(2.83552e-20 0.387672 -0)
(-2.83552e-20 0.388477 0)
(2.83553e-20 0.389281 -0)
(3.90064e-19 0.390086 -0)
(0 0.390891 0)
(1.94231e-19 0.391696 -0)
(0 0.3925 0)
(1.6508e-19 0.393305 -0)
(-1.93041e-19 0.39411 0)
(0 0.394915 0)
(0 0.395719 0)
(0 0.396524 0)
(0 0.397329 0)
(2.19446e-19 0.398134 -0)
(0 0.398938 0)
(0 0.399743 0)
(0 0.400548 0)
(0 0.401353 0)
(3.5e-19 0.402157 -0)
(-1.888e-19 0.402962 0)
(1.88424e-19 0.403767 -0)
(0 0.404572 0)
(0 0.405376 0)
(-1.87304e-19 0.406181 0)
(2.1529e-19 0.406986 -0)
(-1.86564e-19 0.407791 0)
(0 0.408595 0)
(0 0.4094 0)
(-1.85466e-19 0.410205 0)
(1.85103e-19 0.41101 -0)
(0 0.411814 0)
(1.56024e-19 0.412619 -0)
(-1.84022e-19 0.413424 0)
(-1.83665e-19 0.414229 0)
(0 0.415034 0)
(3.94265e-19 0.415838 -0)
(0 0.416643 0)
(0 0.417448 0)
(1.81898e-19 0.418253 -0)
(0 0.419057 0)
(-1.81201e-19 0.419862 0)
(0 0.420667 0)
(1.52151e-19 0.421472 -0)
(-1.80165e-19 0.422276 0)
(0 0.423081 0)
(-3.58961e-19 0.423886 0)
(0 0.424691 0)
(1.78802e-19 0.425495 -0)
(2.83578e-20 0.4263 -0)
(0 0.427105 0)
(-1.77793e-19 0.42791 0)
(0 0.428714 0)
(0 0.429519 0)
(1.48437e-19 0.430324 -0)
(-3.52931e-19 0.431129 0)
(-1.76137e-19 0.431933 0)
(0 0.432738 0)
(1.75483e-19 0.433543 -0)
(-1.75158e-19 0.434348 0)
(0 0.435152 0)
(2.02869e-19 0.435957 -0)
(0 0.436762 0)
(0 0.437567 0)
(-1.7355e-19 0.438371 0)
(1.44873e-19 0.439176 -0)
(-1.72915e-19 0.439981 0)
(1.72599e-19 0.440786 -0)
(-1.72285e-19 0.44159 0)
(-3.43943e-19 0.442395 0)
(0 0.4432 0)
(0 0.444005 0)
(2.8359e-20 0.444809 -0)
(0 0.445614 0)
(0 0.446419 0)
(0 0.447224 0)
(-1.69809e-19 0.448029 0)
(0 0.448833 0)
(1.40842e-19 0.449638 -0)
(-3.37798e-19 0.450443 0)
(0 0.451248 0)
(-1.68297e-19 0.452052 0)
(0 0.452857 0)
(1.9606e-19 0.453662 -0)
(0 0.454467 0)
(0 0.455271 0)
(0 0.456076 0)
(0 0.456881 0)
(0 0.457686 0)
(1.37575e-19 0.45849 -0)
(-3.31287e-19 0.459295 0)
(0 0.4601 0)
(0 0.460905 0)
(0 0.461709 0)
(2.83599e-20 0.462514 -0)
(-2.836e-20 0.463319 0)
(2.836e-20 0.464124 -0)
(0 0.464928 0)
(0 0.465733 0)
(0 0.466538 0)
(2.97222e-19 0.467343 -0)
(0 0.468147 0)
(0 0.468952 0)
(-3.23909e-19 0.469757 0)
(0 0.470562 0)
(0 0.471366 0)
(0 0.472171 0)
(1.89213e-19 0.472976 -0)
(-1.60579e-19 0.473781 0)
(-1.60307e-19 0.474585 0)
(0 0.47539 0)
(-2.83607e-20 0.476195 0)
(-1.59495e-19 0.477 0)
(0 0.477804 0)
(-1.58959e-19 0.478609 0)
(0 0.479414 0)
(-3.16853e-19 0.480219 0)
(0 0.481023 0)
(3.44155e-19 0.481828 -0)
(0 0.482633 0)
(0 0.483438 0)
(-1.5711e-19 0.484243 0)
(0 0.485047 0)
(3.13179e-19 0.485852 -0)
(2.843e-19 0.486657 -0)
(-3.12145e-19 0.487462 0)
(-3.1163e-19 0.488266 0)
(-3.11118e-19 0.489071 0)
(0 0.489876 0)
(2.83614e-20 0.490681 -0)
(0 0.491485 0)
(0 0.49229 0)
(3.08579e-19 0.493095 -0)
(0 0.4939 0)
(0 0.494704 0)
(0 0.495509 0)
(-2.83616e-20 0.496314 0)
(0 0.497119 0)
(-3.05586e-19 0.497923 0)
(0 0.498728 0)
(3.32963e-19 0.499533 -0)
(0 0.500338 0)
(0 0.501142 0)
(-3.03137e-19 0.501947 0)
(0 0.502752 0)
(0 0.503557 0)
(0 0.504361 0)
(-2.8362e-20 0.505166 0)
(0 0.505971 0)
(-3.00248e-19 0.506776 0)
(0 0.50758 0)
(0 0.508385 0)
(0 0.50919 0)
(2.83622e-20 0.509995 -0)
(0 0.510799 0)
(0 0.511604 0)
(0 0.512409 0)
(0 0.513214 0)
(-2.83624e-20 0.514018 0)
(0 0.514823 0)
(0 0.515628 0)
(0 0.516433 0)
(0 0.517237 0)
(0 0.518042 0)
(3.21625e-19 0.518847 -0)
(0 0.519652 0)
(0 0.520457 0)
(0 0.521261 0)
(0 0.522066 0)
(0 0.522871 0)
(0 0.523676 0)
(2.6175e-19 0.52448 -0)
(0 0.525285 0)
(-2.89225e-19 0.52609 0)
(0 0.526895 0)
(3.16706e-19 0.527699 -0)
(0 0.528504 0)
(0 0.529309 0)
(0 0.530114 0)
(0 0.530918 0)
(0 0.531723 0)
(0 0.532528 0)
(2.56934e-19 0.533333 -0)
(-2.84868e-19 0.534137 0)
(0 0.534942 0)
(0 0.535747 0)
(-2.83586e-19 0.536552 0)
(3.11525e-19 0.537356 -0)
(0 0.538161 0)
(0 0.538966 0)
(0 0.539771 0)
(-2.81475e-19 0.540575 0)
(0 0.54138 0)
(2.52276e-19 0.542185 -0)
(-2.80224e-19 0.54299 0)
(0 0.543794 0)
(-2.79395e-19 0.544599 0)
(-2.78983e-19 0.545404 0)
(-2.78572e-19 0.546209 0)
(-2.78162e-19 0.547013 0)
(3.06117e-19 0.547818 -0)
(0 0.548623 0)
(0 0.549428 0)
(0 0.550232 0)
(2.47767e-19 0.551037 -0)
(0 0.551842 0)
(-2.75327e-19 0.552647 0)
(0 0.553451 0)
(0 0.554256 0)
(0 0.555061 0)
(0 0.555866 0)
(3.01701e-19 0.556671 -0)
(-2.72942e-19 0.557475 0)
(-2.72549e-19 0.55828 0)
(0 0.559085 0)
(2.43401e-19 0.55989 -0)
(2.83643e-20 0.560694 -0)
(2.42622e-19 0.561499 -0)
(0 0.562304 0)
(0 0.563109 0)
(0 0.563913 0)
(-2.69442e-19 0.564718 0)
(2.97423e-19 0.565523 -0)
(-2.68676e-19 0.566328 0)
(0 0.567132 0)
(0 0.567937 0)
(-2.67535e-19 0.568742 0)
(0 0.569547 0)
(-2.83646e-20 0.570351 0)
(0 0.571156 0)
(0 0.571961 0)
(0 0.572766 0)
(0 0.57357 0)
(2.93276e-19 0.574375 -0)
(0 0.57518 0)
(-2.64171e-19 0.575985 0)
(0 0.576789 0)
(0 0.577594 0)
(-2.63068e-19 0.578399 0)
(2.34338e-19 0.579204 -0)
(0 0.580008 0)
(-2.61975e-19 0.580813 0)
(0 0.581618 0)
(-2.61251e-19 0.582423 0)
(2.6089e-19 0.583227 -0)
(0 0.584032 0)
(2.88538e-19 0.584837 -0)
(0 0.585642 0)
(0 0.586446 0)
(0 0.587251 0)
(2.30383e-19 0.588056 -0)
(-2.58395e-19 0.588861 0)
(-2.58042e-19 0.589666 0)
(0 0.59047 0)
(-2.5734e-19 0.591275 0)
(0 0.59208 0)
(0 0.592885 0)
(2.84659e-19 0.593689 -0)
(0 0.594494 0)
(0 0.595299 0)
(0 0.596104 0)
(0 0.596908 0)
(2.26202e-19 0.597713 -0)
(2.54226e-19 0.598518 -0)
(0 0.599323 0)
(0 0.600127 0)
(-2.53204e-19 0.600932 0)
(0 0.601737 0)
(2.83657e-20 0.602542 -0)
(-2.52191e-19 0.603346 0)
(0 0.604151 0)
(0 0.604956 0)
(2.51186e-19 0.605761 -0)
(-2.50853e-19 0.606565 0)
(0 0.60737 0)
(2.21823e-19 0.608175 -0)
(0 0.60898 0)
(0 0.609784 0)
(-2.49199e-19 0.610589 0)
(2.77237e-19 0.611394 -0)
(0 0.612199 0)
(0 0.613003 0)
(-2.47893e-19 0.613808 0)
(-2.47568e-19 0.614613 0)
(0 0.615418 0)
(0 0.616222 0)
(2.18233e-19 0.617027 -0)
(0 0.617832 0)
(0 0.618637 0)
(0 0.619441 0)
(0 0.620246 0)
(0 0.621051 0)
(2.83663e-20 0.621856 -0)
(-2.44368e-19 0.62266 0)
(0 0.623465 0)
(-2.43738e-19 0.62427 0)
(-2.43424e-19 0.625075 0)
(2.14745e-19 0.62588 -0)
(-2.42799e-19 0.626684 0)
(0 0.627489 0)
(0 0.628294 0)
(0 0.629099 0)
(0 0.629903 0)
(2.69617e-19 0.630708 -0)
(0 0.631513 0)
(0 0.632318 0)
(-2.4033e-19 0.633122 0)
(0 0.633927 0)
(-2.83666e-20 0.634732 0)
(-2.11051e-19 0.635537 0)
(2.10748e-19 0.636341 -0)
(-2.38813e-19 0.637146 0)
(0 0.637951 0)
(0 0.638756 0)
(2.66278e-19 0.63956 -0)
(0 0.640365 0)
(0 0.64117 0)
(0 0.641975 0)
(0 0.642779 0)
(0 0.643584 0)
(0 0.644389 0)
(2.07467e-19 0.645194 -0)
(0 0.645998 0)
(-2.35247e-19 0.646803 0)
(0 0.647608 0)
(0 0.648413 0)
(2.8367e-20 0.649217 -0)
(0 0.650022 0)
(0 0.650827 0)
(0 0.651632 0)
(-2.33216e-19 0.652436 0)
(0 0.653241 0)
(2.04275e-19 0.654046 -0)
(0 0.654851 0)
(0 0.655655 0)
(-2.31786e-19 0.65646 0)
(-2.31503e-19 0.657265 0)
(-2.31219e-19 0.65807 0)
(0 0.658874 0)
(2.59023e-19 0.659679 -0)
(-2.30374e-19 0.660484 0)
(0 0.661289 0)
(0 0.662094 0)
(2.01168e-19 0.662898 -0)
(0 0.663703 0)
(0 0.664508 0)
(2.28702e-19 0.665313 -0)
(0 0.666117 0)
(0 0.666922 0)
(0 0.667727 0)
(2.55969e-19 0.668532 -0)
(-2.27327e-19 0.669336 0)
(0 0.670141 0)
(0 0.670946 0)
(-2.83676e-20 0.671751 0)
(0 0.672555 0)
(-2.25969e-19 0.67336 0)
(0 0.674165 0)
(-4.5086e-19 0.67497 0)
(0 0.675774 0)
(0 0.676579 0)
(4.77621e-19 0.677384 -0)
(0 0.678189 0)
(4.48188e-19 0.678993 -0)
(0 0.679798 0)
(4.47129e-19 0.680603 -0)
(0 0.681408 0)
(-2.83679e-20 0.682212 0)
(0 0.683017 0)
(4.45024e-19 0.683822 -0)
(4.44501e-19 0.684627 -0)
(0 0.685431 0)
(2.8368e-20 0.686236 -0)
(0 0.687041 0)
(0 0.687846 0)
(0 0.68865 0)
(4.41388e-19 0.689455 -0)
(0 0.69026 0)
(-2.83681e-20 0.691065 0)
(0 0.691869 0)
(0 0.692674 0)
(4.38827e-19 0.693479 -0)
(4.38318e-19 0.694284 -0)
(2.83682e-20 0.695089 -0)
(-2.83682e-20 0.695893 0)
(2.83682e-20 0.696698 -0)
(0 0.697503 0)
(0 0.698308 0)
(4.35291e-19 0.699112 -0)
(-4.63158e-19 0.699917 0)
(0 0.700722 0)
(0 0.701527 0)
(0 0.702331 0)
(2.83684e-20 0.703136 -0)
(4.32305e-19 0.703941 -0)
(5.67369e-20 0.704746 -0)
(-5.67369e-20 0.70555 0)
(5.67369e-20 0.706355 -0)
(-5.6737e-20 0.70716 0)
(5.6737e-20 0.707965 -0)
(3.72623e-19 0.708769 -0)
(5.67371e-20 0.709574 -0)
(0 0.710379 0)
(-5.67372e-20 0.711184 0)
(5.67372e-20 0.711988 -0)
(4.26936e-19 0.712793 -0)
(-5.67373e-20 0.713598 0)
(4.82711e-19 0.714403 -0)
(3.68757e-19 0.715207 -0)
(5.67374e-20 0.716012 -0)
(-5.67374e-20 0.716817 0)
(0 0.717622 0)
(5.67375e-20 0.718426 -0)
(-5.67375e-20 0.719231 0)
(5.67376e-20 0.720036 -0)
(-4.78907e-19 0.720841 0)
(4.21699e-19 0.721645 -0)
(5.67377e-20 0.72245 -0)
(-5.67377e-20 0.723255 0)
(5.67377e-20 0.72406 -0)
(3.63088e-19 0.724864 -0)
(-4.1936e-19 0.725669 0)
(5.67378e-20 0.726474 -0)
(-5.67379e-20 0.727279 0)
(5.67379e-20 0.728083 -0)
(3.6077e-19 0.728888 -0)
(4.73786e-19 0.729693 -0)
(0 0.730498 0)
(-5.6738e-20 0.731303 0)
(5.67381e-20 0.732107 -0)
(4.15216e-19 0.732912 -0)
(-5.67381e-20 0.733717 0)
(5.67382e-20 0.734522 -0)
(3.57115e-19 0.735326 -0)
(5.67382e-20 0.736131 -0)
(-5.67383e-20 0.736936 0)
(4.69237e-19 0.737741 -0)
(-5.67383e-20 0.738545 0)
(0 0.73935 0)
(-5.67384e-20 0.740155 0)
(0 0.74096 0)
(-5.67385e-20 0.741764 0)
(4.66555e-19 0.742569 -0)
(-5.67385e-20 0.743374 0)
(5.67386e-20 0.744179 -0)
(-5.67386e-20 0.744983 0)
(5.67386e-20 0.745788 -0)
(-5.67387e-20 0.746593 0)
(5.67387e-20 0.747398 -0)
(-8.13462e-19 0.748202 0)
(-4.63033e-19 0.749007 0)
(0 0.749812 0)
(4.62162e-19 0.750617 -0)
(3.4825e-19 0.751421 -0)
(5.67389e-20 0.752226 -0)
(-5.67389e-20 0.753031 0)
(5.6739e-20 0.753836 -0)
(-5.6739e-20 0.75464 0)
(0 0.755445 0)
(5.67391e-20 0.75625 -0)
(-5.67391e-20 0.757055 0)
(5.67391e-20 0.757859 -0)
(4.01122e-19 0.758664 -0)
(-4.57436e-19 0.759469 0)
(4.57012e-19 0.760274 -0)
(3.4311e-19 0.761078 -0)
(5.67393e-20 0.761883 -0)
(0 0.762688 0)
(-5.67394e-20 0.763493 0)
(5.67394e-20 0.764298 -0)
(3.41007e-19 0.765102 -0)
(4.54068e-19 0.765907 -0)
(-5.67395e-20 0.766712 0)
(3.96496e-19 0.767517 -0)
(5.67395e-20 0.768321 -0)
(-5.67396e-20 0.769126 0)
(4.51992e-19 0.769931 -0)
(-3.9484e-19 0.770736 0)
(3.37688e-19 0.77154 -0)
(5.67397e-20 0.772345 -0)
(-5.67397e-20 0.77315 0)
(-3.36458e-19 0.773955 0)
(-5.67398e-20 0.774759 0)
(5.67398e-20 0.775564 -0)
(3.91975e-19 0.776369 -0)
(3.34829e-19 0.777174 -0)
(0 0.777978 0)
(4.475e-19 0.778783 -0)
(-5.674e-20 0.779588 0)
(5.674e-20 0.780393 -0)
(3.32812e-19 0.781197 -0)
(5.67401e-20 0.782002 -0)
(-5.67401e-20 0.782807 0)
(4.45092e-19 0.783612 -0)
(-4.44694e-19 0.784416 0)
(0 0.785221 0)
(4.43899e-19 0.786026 -0)
(3.86763e-19 0.786831 -0)
(-5.67403e-20 0.787635 0)
(5.67403e-20 0.78844 -0)
(-5.67403e-20 0.789245 0)
(5.67404e-20 0.79005 -0)
(-5.67404e-20 0.790854 0)
(8.25549e-19 0.791659 -0)
(-5.67405e-20 0.792464 0)
(0 0.793269 0)
(5.67405e-20 0.794073 -0)
(-5.67405e-20 0.794878 0)
(5.67406e-20 0.795683 -0)
(0 0.796488 0)
(-5.67406e-20 0.797292 0)
(-3.24562e-19 0.798097 0)
(-4.3766e-19 0.798902 0)
(5.67407e-20 0.799707 -0)
(3.80153e-19 0.800512 -0)
(3.23031e-19 0.801316 -0)
(5.67408e-20 0.802121 -0)
(-5.67408e-20 0.802926 0)
(5.67409e-20 0.803731 -0)
)
;
        slipLength      uniform 5.38456e-07;
        value    uniform (0 0 0);
    }
    inlet
    {
        type            zeroGradient;
    }
    bottom
    {
        type            navierSlip;
        value           uniform (0 0 0);
        slipLength      uniform 5.38456e-07;
        wallVelocity    uniform (0 0 0);
    }
    outlet
    {
        type            zeroGradient;
    }
    left
    {
        type            wedge;
    }
    right
    {
        type            wedge;
    }
    axis
    {
        type            empty;
    }
}


// ************************************************************************* //
