# Moment      
# CofR        : (0.000000e+00 0.000000e+00 0.000000e+00)
#
# Time        	(total_x total_y total_z)	(pressure_x pressure_y pressure_z)	(viscous_x viscous_y viscous_z)
1e-08         	(3.309890e-29 1.947805e-08 3.707267e-07)	(3.309890e-29 1.947805e-08 0.000000e+00)	(-5.991580e-38 2.529058e-17 3.707267e-07)
2e-08         	(6.554482e-29 3.855252e-08 1.397759e-06)	(6.554483e-29 3.855252e-08 0.000000e+00)	(-1.774896e-37 8.659881e-17 1.397759e-06)
3e-08         	(8.999761e-29 5.301067e-08 3.092757e-06)	(8.999761e-29 5.301067e-08 0.000000e+00)	(-3.176065e-37 1.678290e-16 3.092757e-06)
4e-08         	(1.114126e-28 6.563199e-08 5.289413e-06)	(1.114126e-28 6.563199e-08 0.000000e+00)	(-4.585230e-37 2.536022e-16 5.289413e-06)
5e-08         	(1.309404e-28 7.705626e-08 7.766575e-06)	(1.309404e-28 7.705626e-08 0.000000e+00)	(-5.900116e-37 3.355252e-16 7.766575e-06)
6e-08         	(1.498342e-28 8.824818e-08 1.032583e-05)	(1.498342e-28 8.824818e-08 0.000000e+00)	(-7.071762e-37 4.092949e-16 1.032583e-05)
7e-08         	(1.664410e-28 9.791884e-08 1.282118e-05)	(1.664410e-28 9.791884e-08 0.000000e+00)	(-8.082622e-37 4.731912e-16 1.282118e-05)
8e-08         	(1.822729e-28 1.072781e-07 1.516024e-05)	(1.822729e-28 1.072781e-07 0.000000e+00)	(-8.935378e-37 5.271600e-16 1.516024e-05)
9e-08         	(1.966130e-28 1.157631e-07 1.729366e-05)	(1.966130e-28 1.157631e-07 0.000000e+00)	(-9.643830e-37 5.720728e-16 1.729366e-05)
1e-07         	(2.087822e-28 1.228290e-07 1.920277e-05)	(2.087822e-28 1.228290e-07 0.000000e+00)	(-1.022753e-36 6.090961e-16 1.920277e-05)
1.1e-07       	(2.206398e-28 1.299319e-07 2.088825e-05)	(2.206398e-28 1.299319e-07 0.000000e+00)	(-1.070599e-36 6.395444e-16 2.088825e-05)
1.2e-07       	(2.299749e-28 1.353043e-07 2.236211e-05)	(2.299749e-28 1.353043e-07 0.000000e+00)	(-1.109830e-36 6.645437e-16 2.236211e-05)
1.3e-07       	(2.390993e-28 1.407532e-07 2.364214e-05)	(2.390993e-28 1.407532e-07 0.000000e+00)	(-1.142002e-36 6.851733e-16 2.364214e-05)
1.4e-07       	(2.464283e-28 1.450037e-07 2.474844e-05)	(2.464283e-28 1.450037e-07 0.000000e+00)	(-1.168518e-36 7.022226e-16 2.474844e-05)
1.5e-07       	(2.539704e-28 1.496190e-07 2.570127e-05)	(2.539704e-28 1.496190e-07 0.000000e+00)	(-1.190444e-36 7.163998e-16 2.570127e-05)
1.6e-07       	(2.589262e-28 1.523676e-07 2.651986e-05)	(2.589262e-28 1.523676e-07 0.000000e+00)	(-1.208711e-36 7.282074e-16 2.651986e-05)
1.7e-07       	(2.647356e-28 1.559460e-07 2.722188e-05)	(2.647356e-28 1.559460e-07 0.000000e+00)	(-1.223943e-36 7.381405e-16 2.722188e-05)
1.8e-07       	(2.679772e-28 1.576325e-07 2.782315e-05)	(2.679772e-28 1.576325e-07 0.000000e+00)	(-1.236802e-36 7.464519e-16 2.782315e-05)
1.9e-07       	(2.727375e-28 1.606381e-07 2.833767e-05)	(2.727375e-28 1.606381e-07 0.000000e+00)	(-1.247607e-36 7.535116e-16 2.833767e-05)
2e-07         	(2.752214e-28 1.619503e-07 2.877766e-05)	(2.752214e-28 1.619503e-07 0.000000e+00)	(-1.256787e-36 7.594708e-16 2.877766e-05)
2.1e-07       	(2.787926e-28 1.642121e-07 2.915357e-05)	(2.787926e-28 1.642121e-07 0.000000e+00)	(-1.264553e-36 7.645615e-16 2.915357e-05)
2.2e-07       	(2.807039e-28 1.652415e-07 2.947480e-05)	(2.807039e-28 1.652415e-07 0.000000e+00)	(-1.271196e-36 7.688722e-16 2.947480e-05)
2.3e-07       	(2.823857e-28 1.661573e-07 2.974922e-05)	(2.823857e-28 1.661573e-07 0.000000e+00)	(-1.276877e-36 7.725408e-16 2.974922e-05)
2.4e-07       	(2.841348e-28 1.671849e-07 2.998361e-05)	(2.841348e-28 1.671849e-07 0.000000e+00)	(-1.281716e-36 7.756878e-16 2.998361e-05)
2.5e-07       	(2.868011e-28 1.689877e-07 3.018380e-05)	(2.868011e-28 1.689877e-07 0.000000e+00)	(-1.285813e-36 7.784131e-16 3.018380e-05)
2.6e-07       	(2.873311e-28 1.691466e-07 3.035475e-05)	(2.873311e-28 1.691466e-07 0.000000e+00)	(-1.289371e-36 7.807057e-16 3.035475e-05)
2.7e-07       	(2.888465e-28 1.701209e-07 3.050073e-05)	(2.888465e-28 1.701209e-07 0.000000e+00)	(-1.292398e-36 7.826837e-16 3.050073e-05)
2.8e-07       	(2.895657e-28 1.704984e-07 3.062538e-05)	(2.895657e-28 1.704984e-07 0.000000e+00)	(-1.295001e-36 7.843695e-16 3.062538e-05)
2.9e-07       	(2.902030e-28 1.708389e-07 3.073182e-05)	(2.902030e-28 1.708389e-07 0.000000e+00)	(-1.297226e-36 7.858162e-16 3.073182e-05)
3e-07         	(2.911742e-28 1.714664e-07 3.082269e-05)	(2.911742e-28 1.714664e-07 0.000000e+00)	(-1.299123e-36 7.870621e-16 3.082269e-05)
3.1e-07       	(2.908692e-28 1.711062e-07 3.090029e-05)	(2.908692e-28 1.711062e-07 0.000000e+00)	(-1.300768e-36 7.881117e-16 3.090029e-05)
3.2e-07       	(2.920725e-28 1.719545e-07 3.096654e-05)	(2.920725e-28 1.719545e-07 0.000000e+00)	(-1.302146e-36 7.890330e-16 3.096654e-05)
3.3e-07       	(2.930236e-28 1.726188e-07 3.102310e-05)	(2.930236e-28 1.726188e-07 0.000000e+00)	(-1.303304e-36 7.898366e-16 3.102310e-05)
3.4e-07       	(2.928157e-28 1.723801e-07 3.107140e-05)	(2.928158e-28 1.723801e-07 0.000000e+00)	(-1.304333e-36 7.904926e-16 3.107140e-05)
3.5e-07       	(2.930228e-28 1.724799e-07 3.111263e-05)	(2.930228e-28 1.724799e-07 0.000000e+00)	(-1.305205e-36 7.910594e-16 3.111263e-05)
3.6e-07       	(2.930283e-28 1.724300e-07 3.114784e-05)	(2.930283e-28 1.724300e-07 0.000000e+00)	(-1.305942e-36 7.915488e-16 3.114784e-05)
3.7e-07       	(2.933376e-28 1.726276e-07 3.117789e-05)	(2.933376e-28 1.726276e-07 0.000000e+00)	(-1.306564e-36 7.919717e-16 3.117789e-05)
3.8e-07       	(2.942060e-28 1.732740e-07 3.120356e-05)	(2.942060e-28 1.732740e-07 0.000000e+00)	(-1.307068e-36 7.923537e-16 3.120356e-05)
3.9e-07       	(2.944012e-28 1.733944e-07 3.122547e-05)	(2.944012e-28 1.733944e-07 0.000000e+00)	(-1.307499e-36 7.926779e-16 3.122547e-05)
4e-07         	(2.937487e-28 1.728502e-07 3.124417e-05)	(2.937487e-28 1.728502e-07 0.000000e+00)	(-1.307888e-36 7.929354e-16 3.124417e-05)
4.1e-07       	(2.944572e-28 1.733849e-07 3.126015e-05)	(2.944572e-28 1.733849e-07 0.000000e+00)	(-1.308212e-36 7.931612e-16 3.126015e-05)
4.2e-07       	(2.942998e-28 1.732395e-07 3.127369e-05)	(2.942998e-28 1.732395e-07 0.000000e+00)	(-1.308482e-36 7.933574e-16 3.127369e-05)
4.3e-07       	(2.943694e-28 1.732764e-07 3.128527e-05)	(2.943694e-28 1.732764e-07 0.000000e+00)	(-1.308708e-36 7.935250e-16 3.128527e-05)
4.4e-07       	(2.950380e-28 1.737892e-07 3.129516e-05)	(2.950380e-28 1.737892e-07 0.000000e+00)	(-1.308880e-36 7.936844e-16 3.129516e-05)
4.5e-07       	(2.949126e-28 1.736771e-07 3.130362e-05)	(2.949126e-28 1.736771e-07 0.000000e+00)	(-1.309047e-36 7.938016e-16 3.130362e-05)
4.6e-07       	(2.942891e-28 1.731738e-07 3.131080e-05)	(2.942891e-28 1.731738e-07 0.000000e+00)	(-1.309207e-36 7.938862e-16 3.131080e-05)
4.7e-07       	(2.953489e-28 1.740011e-07 3.131696e-05)	(2.953489e-28 1.740011e-07 0.000000e+00)	(-1.309299e-36 7.939917e-16 3.131696e-05)
4.8e-07       	(2.945056e-28 1.733269e-07 3.132223e-05)	(2.945056e-28 1.733269e-07 0.000000e+00)	(-1.309406e-36 7.940590e-16 3.132223e-05)
4.9e-07       	(2.953362e-28 1.739760e-07 3.132674e-05)	(2.953362e-28 1.739760e-07 0.000000e+00)	(-1.309461e-36 7.941443e-16 3.132674e-05)
5e-07         	(2.944687e-28 1.732847e-07 3.133059e-05)	(2.944687e-28 1.732847e-07 0.000000e+00)	(-1.309555e-36 7.941790e-16 3.133059e-05)
5.1e-07       	(2.945661e-28 1.733567e-07 3.133390e-05)	(2.945661e-28 1.733567e-07 0.000000e+00)	(-1.309601e-36 7.942352e-16 3.133390e-05)
5.2e-07       	(2.948836e-28 1.736031e-07 3.133672e-05)	(2.948836e-28 1.736031e-07 0.000000e+00)	(-1.309637e-36 7.942850e-16 3.133672e-05)
5.3e-07       	(2.944287e-28 1.732399e-07 3.133913e-05)	(2.944287e-28 1.732399e-07 0.000000e+00)	(-1.309694e-36 7.943065e-16 3.133913e-05)
5.4e-07       	(2.949252e-28 1.736287e-07 3.134120e-05)	(2.949252e-28 1.736287e-07 0.000000e+00)	(-1.309721e-36 7.943405e-16 3.134120e-05)
5.5e-07       	(2.944708e-28 1.732673e-07 3.134297e-05)	(2.944708e-28 1.732673e-07 0.000000e+00)	(-1.309752e-36 7.943639e-16 3.134297e-05)
5.6e-07       	(2.951883e-28 1.738316e-07 3.134448e-05)	(2.951883e-28 1.738316e-07 0.000000e+00)	(-1.309763e-36 7.943950e-16 3.134448e-05)
5.7e-07       	(2.948707e-28 1.735787e-07 3.134577e-05)	(2.948707e-28 1.735787e-07 0.000000e+00)	(-1.309791e-36 7.944062e-16 3.134577e-05)
5.8e-07       	(2.950177e-28 1.736934e-07 3.134683e-05)	(2.950177e-28 1.736934e-07 0.000000e+00)	(-1.309801e-36 7.944257e-16 3.134683e-05)
5.9e-07       	(2.950945e-28 1.737525e-07 3.134775e-05)	(2.950945e-28 1.737525e-07 0.000000e+00)	(-1.309808e-36 7.944430e-16 3.134775e-05)
6e-07         	(2.942909e-28 1.731167e-07 3.134854e-05)	(2.942909e-28 1.731167e-07 0.000000e+00)	(-1.309833e-36 7.944431e-16 3.134854e-05)
6.1e-07       	(2.949033e-28 1.735992e-07 3.134922e-05)	(2.949033e-28 1.735992e-07 0.000000e+00)	(-1.309832e-36 7.944607e-16 3.134922e-05)
6.2e-07       	(2.952917e-28 1.739052e-07 3.134981e-05)	(2.952917e-28 1.739052e-07 0.000000e+00)	(-1.309828e-36 7.944778e-16 3.134981e-05)
6.3e-07       	(2.948888e-28 1.735862e-07 3.135032e-05)	(2.948888e-28 1.735862e-07 0.000000e+00)	(-1.309834e-36 7.944860e-16 3.135032e-05)
6.4e-07       	(2.945026e-28 1.732803e-07 3.135075e-05)	(2.945026e-28 1.732803e-07 0.000000e+00)	(-1.309856e-36 7.944784e-16 3.135075e-05)
6.5e-07       	(2.948795e-28 1.735776e-07 3.135113e-05)	(2.948795e-28 1.735776e-07 0.000000e+00)	(-1.309846e-36 7.944948e-16 3.135113e-05)
6.6e-07       	(2.948223e-28 1.735318e-07 3.135145e-05)	(2.948223e-28 1.735318e-07 0.000000e+00)	(-1.309856e-36 7.944940e-16 3.135145e-05)
6.7e-07       	(2.949822e-28 1.736577e-07 3.135172e-05)	(2.949822e-28 1.736577e-07 0.000000e+00)	(-1.309854e-36 7.945019e-16 3.135172e-05)
6.8e-07       	(2.945885e-28 1.733463e-07 3.135196e-05)	(2.945885e-28 1.733463e-07 0.000000e+00)	(-1.309867e-36 7.944966e-16 3.135196e-05)
6.9e-07       	(2.950128e-28 1.736811e-07 3.135217e-05)	(2.950128e-28 1.736811e-07 0.000000e+00)	(-1.309857e-36 7.945089e-16 3.135217e-05)
7e-07         	(2.949595e-28 1.736388e-07 3.135234e-05)	(2.949595e-28 1.736388e-07 0.000000e+00)	(-1.309858e-36 7.945119e-16 3.135234e-05)
7.1e-07       	(2.949817e-28 1.736560e-07 3.135249e-05)	(2.949817e-28 1.736560e-07 0.000000e+00)	(-1.309863e-36 7.945106e-16 3.135249e-05)
7.2e-07       	(2.943788e-28 1.731796e-07 3.135262e-05)	(2.943788e-28 1.731796e-07 0.000000e+00)	(-1.309888e-36 7.944934e-16 3.135262e-05)
7.3e-07       	(2.953607e-28 1.739549e-07 3.135273e-05)	(2.953607e-28 1.739549e-07 0.000000e+00)	(-1.309869e-36 7.945110e-16 3.135273e-05)
7.4e-07       	(2.950932e-28 1.737436e-07 3.135283e-05)	(2.950932e-28 1.737436e-07 0.000000e+00)	(-1.309862e-36 7.945185e-16 3.135283e-05)
7.5e-07       	(2.951012e-28 1.737497e-07 3.135291e-05)	(2.951012e-28 1.737497e-07 0.000000e+00)	(-1.309859e-36 7.945225e-16 3.135291e-05)
7.6e-07       	(2.957960e-28 1.742985e-07 3.135298e-05)	(2.957960e-28 1.742985e-07 0.000000e+00)	(-1.309833e-36 7.945440e-16 3.135298e-05)
7.7e-07       	(2.945585e-28 1.733211e-07 3.135304e-05)	(2.945585e-28 1.733211e-07 0.000000e+00)	(-1.309865e-36 7.945192e-16 3.135304e-05)
7.8e-07       	(2.956197e-28 1.741590e-07 3.135309e-05)	(2.956197e-28 1.741590e-07 0.000000e+00)	(-1.309849e-36 7.945334e-16 3.135309e-05)
7.9e-07       	(2.940579e-28 1.729254e-07 3.135314e-05)	(2.940580e-28 1.729254e-07 0.000000e+00)	(-1.309890e-36 7.945008e-16 3.135314e-05)
8e-07         	(2.948786e-28 1.735736e-07 3.135318e-05)	(2.948786e-28 1.735736e-07 0.000000e+00)	(-1.309866e-36 7.945206e-16 3.135318e-05)
8.1e-07       	(2.952093e-28 1.738347e-07 3.135321e-05)	(2.952093e-28 1.738347e-07 0.000000e+00)	(-1.309853e-36 7.945315e-16 3.135321e-05)
8.2e-07       	(2.943837e-28 1.731827e-07 3.135324e-05)	(2.943837e-28 1.731827e-07 0.000000e+00)	(-1.309878e-36 7.945121e-16 3.135324e-05)
8.3e-07       	(2.953980e-28 1.739838e-07 3.135326e-05)	(2.953980e-28 1.739838e-07 0.000000e+00)	(-1.309850e-36 7.945355e-16 3.135326e-05)
8.4e-07       	(2.946352e-28 1.733811e-07 3.135328e-05)	(2.946352e-28 1.733811e-07 0.000000e+00)	(-1.309878e-36 7.945130e-16 3.135328e-05)
8.5e-07       	(2.954904e-28 1.740565e-07 3.135330e-05)	(2.954904e-28 1.740565e-07 0.000000e+00)	(-1.309850e-36 7.945356e-16 3.135330e-05)
8.6e-07       	(2.945897e-28 1.733451e-07 3.135332e-05)	(2.945897e-28 1.733451e-07 0.000000e+00)	(-1.309871e-36 7.945190e-16 3.135332e-05)
8.7e-07       	(2.951967e-28 1.738246e-07 3.135333e-05)	(2.951967e-28 1.738246e-07 0.000000e+00)	(-1.309859e-36 7.945291e-16 3.135333e-05)
8.8e-07       	(2.947483e-28 1.734703e-07 3.135334e-05)	(2.947483e-28 1.734703e-07 0.000000e+00)	(-1.309864e-36 7.945250e-16 3.135334e-05)
8.9e-07       	(2.951065e-28 1.737533e-07 3.135335e-05)	(2.951065e-28 1.737533e-07 0.000000e+00)	(-1.309855e-36 7.945320e-16 3.135335e-05)
9e-07         	(2.959532e-28 1.744221e-07 3.135336e-05)	(2.959532e-28 1.744221e-07 0.000000e+00)	(-1.309837e-36 7.945467e-16 3.135336e-05)
9.1e-07       	(2.943625e-28 1.731658e-07 3.135337e-05)	(2.943625e-28 1.731658e-07 0.000000e+00)	(-1.309873e-36 7.945180e-16 3.135337e-05)
9.2e-07       	(2.945015e-28 1.732754e-07 3.135337e-05)	(2.945015e-28 1.732754e-07 0.000000e+00)	(-1.309891e-36 7.945039e-16 3.135337e-05)
9.3e-07       	(2.950016e-28 1.736704e-07 3.135338e-05)	(2.950016e-28 1.736704e-07 0.000000e+00)	(-1.309874e-36 7.945173e-16 3.135338e-05)
9.4e-07       	(2.957117e-28 1.742312e-07 3.135338e-05)	(2.957117e-28 1.742312e-07 0.000000e+00)	(-1.309845e-36 7.945404e-16 3.135338e-05)
9.5e-07       	(2.956706e-28 1.741989e-07 3.135339e-05)	(2.956706e-28 1.741989e-07 0.000000e+00)	(-1.309840e-36 7.945444e-16 3.135339e-05)
9.6e-07       	(2.946414e-28 1.733859e-07 3.135339e-05)	(2.946415e-28 1.733859e-07 0.000000e+00)	(-1.309870e-36 7.945204e-16 3.135339e-05)
9.7e-07       	(2.946647e-28 1.734043e-07 3.135339e-05)	(2.946647e-28 1.734043e-07 0.000000e+00)	(-1.309874e-36 7.945179e-16 3.135339e-05)
9.8e-07       	(2.952496e-28 1.738662e-07 3.135340e-05)	(2.952496e-28 1.738662e-07 0.000000e+00)	(-1.309863e-36 7.945264e-16 3.135340e-05)
9.9e-07       	(2.947466e-28 1.734691e-07 3.135340e-05)	(2.947466e-28 1.734690e-07 0.000000e+00)	(-1.309879e-36 7.945135e-16 3.135340e-05)
1e-06         	(2.949790e-28 1.736524e-07 3.135340e-05)	(2.949790e-28 1.736524e-07 0.000000e+00)	(-1.309869e-36 7.945213e-16 3.135340e-05)
1.01e-06      	(2.947879e-28 1.735014e-07 3.135340e-05)	(2.947879e-28 1.735014e-07 0.000000e+00)	(-1.309877e-36 7.945151e-16 3.135340e-05)
1.02e-06      	(2.949788e-28 1.736523e-07 3.135340e-05)	(2.949788e-28 1.736523e-07 0.000000e+00)	(-1.309869e-36 7.945211e-16 3.135340e-05)
1.03e-06      	(2.951526e-28 1.737896e-07 3.135340e-05)	(2.951526e-28 1.737896e-07 0.000000e+00)	(-1.309861e-36 7.945282e-16 3.135340e-05)
1.04e-06      	(2.958462e-28 1.743375e-07 3.135340e-05)	(2.958462e-28 1.743375e-07 0.000000e+00)	(-1.309830e-36 7.945524e-16 3.135340e-05)
1.05e-06      	(2.949426e-28 1.736238e-07 3.135341e-05)	(2.949426e-28 1.736238e-07 0.000000e+00)	(-1.309863e-36 7.945265e-16 3.135341e-05)
1.06e-06      	(2.954740e-28 1.740435e-07 3.135341e-05)	(2.954740e-28 1.740435e-07 0.000000e+00)	(-1.309849e-36 7.945373e-16 3.135341e-05)
1.07e-06      	(2.942110e-28 1.730459e-07 3.135341e-05)	(2.942110e-28 1.730459e-07 0.000000e+00)	(-1.309893e-36 7.945027e-16 3.135341e-05)
1.08e-06      	(2.952799e-28 1.738901e-07 3.135341e-05)	(2.952799e-28 1.738901e-07 0.000000e+00)	(-1.309864e-36 7.945254e-16 3.135341e-05)
1.09e-06      	(2.948052e-28 1.735152e-07 3.135341e-05)	(2.948052e-28 1.735152e-07 0.000000e+00)	(-1.309875e-36 7.945171e-16 3.135341e-05)
1.1e-06       	(2.951629e-28 1.737977e-07 3.135341e-05)	(2.951629e-28 1.737977e-07 0.000000e+00)	(-1.309860e-36 7.945289e-16 3.135341e-05)
1.11e-06      	(2.946104e-28 1.733615e-07 3.135341e-05)	(2.946104e-28 1.733615e-07 0.000000e+00)	(-1.309867e-36 7.945229e-16 3.135341e-05)
1.12e-06      	(2.947642e-28 1.734829e-07 3.135341e-05)	(2.947642e-28 1.734829e-07 0.000000e+00)	(-1.309870e-36 7.945204e-16 3.135341e-05)
1.13e-06      	(2.951133e-28 1.737585e-07 3.135341e-05)	(2.951133e-28 1.737585e-07 0.000000e+00)	(-1.309866e-36 7.945236e-16 3.135341e-05)
1.14e-06      	(2.955383e-28 1.740944e-07 3.135341e-05)	(2.955383e-28 1.740944e-07 0.000000e+00)	(-1.309835e-36 7.945489e-16 3.135341e-05)
1.15e-06      	(2.948196e-28 1.735267e-07 3.135341e-05)	(2.948196e-28 1.735267e-07 0.000000e+00)	(-1.309860e-36 7.945290e-16 3.135341e-05)
1.16e-06      	(2.946105e-28 1.733615e-07 3.135341e-05)	(2.946105e-28 1.733615e-07 0.000000e+00)	(-1.309874e-36 7.945177e-16 3.135341e-05)
1.17e-06      	(2.947139e-28 1.734430e-07 3.135341e-05)	(2.947139e-28 1.734430e-07 0.000000e+00)	(-1.309879e-36 7.945133e-16 3.135341e-05)
1.18e-06      	(2.953932e-28 1.739797e-07 3.135341e-05)	(2.953932e-28 1.739797e-07 0.000000e+00)	(-1.309852e-36 7.945349e-16 3.135341e-05)
1.19e-06      	(2.951834e-28 1.738138e-07 3.135341e-05)	(2.951834e-28 1.738138e-07 0.000000e+00)	(-1.309851e-36 7.945355e-16 3.135341e-05)
1.2e-06       	(2.949541e-28 1.736329e-07 3.135341e-05)	(2.949541e-28 1.736329e-07 0.000000e+00)	(-1.309843e-36 7.945427e-16 3.135341e-05)
1.21e-06      	(2.950992e-28 1.737475e-07 3.135341e-05)	(2.950992e-28 1.737475e-07 0.000000e+00)	(-1.309844e-36 7.945417e-16 3.135341e-05)
1.22e-06      	(2.948543e-28 1.735539e-07 3.135341e-05)	(2.948543e-28 1.735539e-07 0.000000e+00)	(-1.309864e-36 7.945251e-16 3.135341e-05)
1.23e-06      	(2.951134e-28 1.737587e-07 3.135341e-05)	(2.951134e-28 1.737587e-07 0.000000e+00)	(-1.309857e-36 7.945315e-16 3.135341e-05)
1.24e-06      	(2.948494e-28 1.735501e-07 3.135341e-05)	(2.948494e-28 1.735501e-07 0.000000e+00)	(-1.309867e-36 7.945235e-16 3.135341e-05)
1.25e-06      	(2.946465e-28 1.733899e-07 3.135341e-05)	(2.946465e-28 1.733898e-07 0.000000e+00)	(-1.309871e-36 7.945197e-16 3.135341e-05)
1.26e-06      	(2.952289e-28 1.738499e-07 3.135341e-05)	(2.952289e-28 1.738499e-07 0.000000e+00)	(-1.309861e-36 7.945276e-16 3.135341e-05)
1.27e-06      	(2.949425e-28 1.736237e-07 3.135341e-05)	(2.949425e-28 1.736237e-07 0.000000e+00)	(-1.309865e-36 7.945249e-16 3.135341e-05)
1.28e-06      	(2.953983e-28 1.739837e-07 3.135341e-05)	(2.953983e-28 1.739837e-07 0.000000e+00)	(-1.309848e-36 7.945386e-16 3.135341e-05)
1.29e-06      	(2.954213e-28 1.740018e-07 3.135341e-05)	(2.954213e-28 1.740018e-07 0.000000e+00)	(-1.309855e-36 7.945329e-16 3.135341e-05)
1.3e-06       	(2.950027e-28 1.736711e-07 3.135341e-05)	(2.950027e-28 1.736711e-07 0.000000e+00)	(-1.309863e-36 7.945261e-16 3.135341e-05)
1.31e-06      	(2.951449e-28 1.737837e-07 3.135341e-05)	(2.951449e-28 1.737837e-07 0.000000e+00)	(-1.309857e-36 7.945312e-16 3.135341e-05)
1.32e-06      	(2.942371e-28 1.730666e-07 3.135341e-05)	(2.942371e-28 1.730666e-07 0.000000e+00)	(-1.309883e-36 7.945101e-16 3.135341e-05)
1.33e-06      	(2.949524e-28 1.736315e-07 3.135341e-05)	(2.949524e-28 1.736315e-07 0.000000e+00)	(-1.309856e-36 7.945316e-16 3.135341e-05)
1.34e-06      	(2.944826e-28 1.732605e-07 3.135341e-05)	(2.944826e-28 1.732605e-07 0.000000e+00)	(-1.309869e-36 7.945215e-16 3.135341e-05)
1.35e-06      	(2.950820e-28 1.737340e-07 3.135341e-05)	(2.950820e-28 1.737340e-07 0.000000e+00)	(-1.309857e-36 7.945313e-16 3.135341e-05)
1.36e-06      	(2.948499e-28 1.735504e-07 3.135341e-05)	(2.948499e-28 1.735504e-07 0.000000e+00)	(-1.309867e-36 7.945228e-16 3.135341e-05)
1.37e-06      	(2.947955e-28 1.735075e-07 3.135341e-05)	(2.947955e-28 1.735075e-07 0.000000e+00)	(-1.309875e-36 7.945172e-16 3.135341e-05)
1.38e-06      	(2.950943e-28 1.737436e-07 3.135341e-05)	(2.950943e-28 1.737436e-07 0.000000e+00)	(-1.309863e-36 7.945262e-16 3.135341e-05)
1.39e-06      	(2.949339e-28 1.736168e-07 3.135341e-05)	(2.949339e-28 1.736168e-07 0.000000e+00)	(-1.309873e-36 7.945185e-16 3.135341e-05)
1.4e-06       	(2.947961e-28 1.735080e-07 3.135341e-05)	(2.947961e-28 1.735080e-07 0.000000e+00)	(-1.309870e-36 7.945208e-16 3.135341e-05)
