x,U_0,U_1,U_2
0,1.18071e-10,2.59724e-05,-2.70768e-11
0.000160804,-3.52115e-11,0.000988,1.8811e-12
0.000321608,-7.17218e-11,0.00195967,1.88105e-12
0.000482412,-1.07816e-10,0.00293137,1.88105e-12
0.000643216,-1.43806e-10,0.00390308,1.88105e-12
0.00080402,-1.79753e-10,0.0048748,1.88105e-12
0.000964824,-2.15678e-10,0.00584651,1.88105e-12
0.00112563,-2.52788e-10,0.00685061,1.88105e-12
0.00128643,3.34339e-10,0.0102118,1.85606e-12
0.00144724,-3.24593e-10,0.00879404,1.88105e-12
0.00160804,-3.6049e-10,0.00976576,1.88105e-12
0.00176884,-3.96384e-10,0.0107375,1.88105e-12
0.00192965,-4.32275e-10,0.0117092,1.88106e-12
0.00209045,-4.68169e-10,0.0126809,1.88105e-12
0.00225126,-5.05256e-10,0.013685,1.88105e-12
0.00241206,-5.41146e-10,0.0146567,1.88104e-12
0.00257286,-5.77034e-10,0.0156284,1.88105e-12
0.00273367,-6.12922e-10,0.0166002,1.88104e-12
0.00289447,-6.48809e-10,0.0175719,1.88105e-12
0.00305528,-6.84695e-10,0.0185436,1.88105e-12
0.00321608,-7.21776e-10,0.0195477,1.88106e-12
0.00337688,8.77356e-10,0.0267875,1.85606e-12
0.00353769,-7.93548e-10,0.0214911,1.88105e-12
0.00369849,-8.29433e-10,0.0224629,1.88105e-12
0.0038593,-8.65317e-10,0.0234346,1.88105e-12
0.0040201,-9.012e-10,0.0244063,1.88104e-12
0.0041809,1.08512e-09,0.0331302,1.85607e-12
0.00434171,-9.74164e-10,0.0263821,1.88105e-12
0.00450251,-1.01005e-09,0.0273538,1.88105e-12
0.00466332,-1.04593e-09,0.0283255,1.88105e-12
0.00482412,-1.08182e-09,0.0292973,1.88104e-12
0.00498492,-1.1177e-09,0.030269,1.88105e-12
0.00514573,1.33582e-09,0.0407838,1.85606e-12
0.00530653,-1.18947e-09,0.0322124,1.88105e-12
0.00546734,-1.22655e-09,0.0332165,1.88105e-12
0.00562814,1.46186e-09,0.0446317,1.85607e-12
0.00578894,-1.29831e-09,0.0351599,1.88105e-12
0.00594975,-1.33419e-09,0.0361317,1.88105e-12
0.00611055,-1.37008e-09,0.0371034,1.88105e-12
0.00627136,1.62807e-09,0.0497059,1.85606e-12
0.00643216,-1.44304e-09,0.0390792,1.88105e-12
0.00659296,1.71256e-09,0.0522853,1.85606e-12
0.00675377,-1.5148e-09,0.0410226,1.88105e-12
0.00691457,-1.55069e-09,0.0419944,1.88105e-12
0.00707538,-1.58657e-09,0.0429661,1.88105e-12
0.00723618,1.87877e-09,0.0573595,1.85606e-12
0.00739698,-1.65834e-09,0.0449095,1.88104e-12
0.00755779,1.96326e-09,0.0599389,1.85606e-12
0.00771859,-1.7313e-09,0.0468853,1.88104e-12
0.0078794,-1.76718e-09,0.047857,1.88105e-12
0.0080402,-1.80306e-09,0.0488288,1.88105e-12
0.00820101,-1.83895e-09,0.0498005,1.88105e-12
0.00836181,-1.87483e-09,0.0507722,1.88105e-12
0.00852261,2.21256e-09,0.0675501,1.85606e-12
0.00868342,-1.94779e-09,0.052748,1.88105e-12
0.00884422,2.29705e-09,0.0701295,1.85606e-12
0.00900503,-2.01956e-09,0.0546914,1.88104e-12
0.00916583,-2.05544e-09,0.0556632,1.88105e-12
0.00932663,-2.09132e-09,0.0566349,1.88104e-12
0.00948744,2.46326e-09,0.0752037,1.85606e-12
0.00964824,-2.16429e-09,0.0586107,1.88105e-12
0.00980905,-2.20017e-09,0.0595824,1.88105e-12
0.00996985,-2.23605e-09,0.0605541,1.88105e-12
0.0101307,-2.27193e-09,0.0615259,1.88105e-12
0.0102915,-2.30782e-09,0.0624976,1.88105e-12
0.0104523,-2.3437e-09,0.0634693,1.88105e-12
0.0106131,2.7555e-09,0.0841258,1.85607e-12
0.0107739,-2.41666e-09,0.0654451,1.88105e-12
0.0109347,2.83999e-09,0.0867052,1.85606e-12
0.0110955,-2.48842e-09,0.0673885,1.88105e-12
0.0112563,2.92309e-09,0.0892423,1.85606e-12
0.0114171,2.96464e-09,0.0905108,1.85606e-12
0.0115779,-2.59607e-09,0.0703037,1.88105e-12
0.0117387,3.04913e-09,0.0930902,1.85606e-12
0.0118995,-2.66903e-09,0.0722795,1.88105e-12
0.0120603,-2.70491e-09,0.0732512,1.88105e-12
0.0122211,-2.7408e-09,0.0742229,1.88105e-12
0.0123819,-2.77668e-09,0.0751947,1.88105e-12
0.0125427,-2.81256e-09,0.0761664,1.88105e-12
0.0127035,-2.84844e-09,0.0771381,1.88105e-12
0.0128643,-2.88552e-09,0.0781422,1.88103e-12
0.0130251,-2.9214e-09,0.0791139,1.88105e-12
0.0131859,-2.95729e-09,0.0800856,1.88105e-12
0.0133467,3.46603e-09,0.105818,1.85606e-12
0.0135075,-3.02905e-09,0.0820291,1.88105e-12
0.0136683,-3.06494e-09,0.0830008,1.88105e-12
0.0138291,-3.10082e-09,0.0839725,1.88105e-12
0.0139899,-3.1379e-09,0.0849766,1.88105e-12
0.0141508,-3.17378e-09,0.0859483,1.88105e-12
0.0143116,3.71672e-09,0.113472,1.85606e-12
0.0144724,-3.24555e-09,0.0878918,1.88105e-12
0.0146332,-3.28143e-09,0.0888635,1.88105e-12
0.014794,-3.31731e-09,0.0898352,1.88105e-12
0.0149548,-3.35439e-09,0.0908393,1.88105e-12
0.0151156,-3.39027e-09,0.091811,1.88105e-12
0.0152764,-3.42615e-09,0.0927827,1.88105e-12
0.0154372,-3.46204e-09,0.0937544,1.88105e-12
0.015598,-3.49792e-09,0.0947262,1.88105e-12
0.0157588,-3.5338e-09,0.0956979,1.88105e-12
0.0159196,-3.56968e-09,0.0966696,1.88105e-12
0.0160804,-3.60676e-09,0.0976737,1.88105e-12
0.0162412,-3.64264e-09,0.0986454,1.88105e-12
0.016402,-3.67853e-09,0.0996171,1.88105e-12
0.0165628,-3.71441e-09,0.100589,1.88105e-12
0.0167236,-3.75029e-09,0.101561,1.88105e-12
0.0168844,-3.78617e-09,0.102532,1.88105e-12
0.0170452,4.42586e-09,0.135121,1.85606e-12
0.017206,-3.85913e-09,0.104508,1.88105e-12
0.0173668,4.51035e-09,0.137701,1.85606e-12
0.0175276,4.5519e-09,0.138969,1.85606e-12
0.0176884,-3.96678e-09,0.107423,1.88105e-12
0.0178492,4.635e-09,0.141506,1.85606e-12
0.0180101,-4.03855e-09,0.109367,1.88105e-12
0.0181709,-4.07562e-09,0.110371,1.88105e-12
0.0183317,4.76104e-09,0.145354,1.85607e-12
0.0184925,4.80259e-09,0.146623,1.85606e-12
0.0186533,4.84414e-09,0.147891,1.85606e-12
0.0188141,-4.21915e-09,0.114258,1.88105e-12
0.0189749,4.92724e-09,0.150429,1.85606e-12
0.0191357,-4.29092e-09,0.116201,1.88105e-12
0.0192965,5.01173e-09,0.153008,1.85606e-12
0.0194573,-4.36388e-09,0.118177,1.88105e-12
0.0196181,-4.39976e-09,0.119149,1.88105e-12
0.0197789,-4.43565e-09,0.12012,1.88105e-12
0.0199397,-4.47153e-09,0.121092,1.88105e-12
0.0201005,5.21948e-09,0.159351,1.85606e-12
0.0202613,-4.54329e-09,0.123036,1.88105e-12
0.0204221,5.30397e-09,0.16193,1.85606e-12
0.0205829,-4.61625e-09,0.125011,1.88105e-12
0.0207437,-4.65214e-09,0.125983,1.88105e-12
0.0209045,-4.68802e-09,0.126955,1.88105e-12
0.0210653,-4.7239e-09,0.127926,1.88105e-12
0.0212261,-4.75978e-09,0.128898,1.88105e-12
0.0213869,-4.79686e-09,0.129902,1.88105e-12
0.0215477,5.59621e-09,0.170852,1.85606e-12
0.0217085,5.63776e-09,0.172121,1.85606e-12
0.0218693,5.67931e-09,0.173389,1.85606e-12
0.0220302,-4.94039e-09,0.133789,1.88105e-12
0.022191,-4.97627e-09,0.134761,1.88105e-12
0.0223518,-5.01216e-09,0.135733,1.88105e-12
0.0225126,-5.04923e-09,0.136737,1.88105e-12
0.0226734,-5.08512e-09,0.137708,1.88105e-12
0.0228342,-5.121e-09,0.13868,1.88105e-12
0.022995,-5.15688e-09,0.139652,1.88105e-12
0.0231558,-5.19276e-09,0.140624,1.88105e-12
0.0233166,-5.22865e-09,0.141595,1.88105e-12
0.0234774,-5.26572e-09,0.142599,1.88105e-12
0.0236382,-5.30161e-09,0.143571,1.88105e-12
0.023799,-5.33749e-09,0.144543,1.88105e-12
0.0239598,-5.37337e-09,0.145515,1.88105e-12
0.0241206,-5.40925e-09,0.146486,1.88105e-12
0.0242814,-5.44514e-09,0.147458,1.88105e-12
0.0244422,-5.48102e-09,0.14843,1.88105e-12
0.024603,6.38984e-09,0.195081,1.85606e-12
0.0247638,-5.55398e-09,0.150406,1.88105e-12
0.0249246,-5.58986e-09,0.151377,1.88105e-12
0.0250854,6.51449e-09,0.198887,1.85607e-12
0.0252462,6.55604e-09,0.200156,1.85607e-12
0.025407,-5.69751e-09,0.154292,1.88105e-12
0.0255678,-5.73339e-09,0.155264,1.88105e-12
0.0257286,6.68208e-09,0.204004,1.85606e-12
0.0258894,-5.80635e-09,0.15724,1.88105e-12
0.0260503,-5.84224e-09,0.158212,1.88105e-12
0.0262111,-5.87812e-09,0.159183,1.88105e-12
0.0263719,-5.914e-09,0.160155,1.88105e-12
0.0265327,6.88983e-09,0.210346,1.85606e-12
0.0266935,-5.98696e-09,0.162131,1.88105e-12
0.0268543,-6.02284e-09,0.163103,1.88105e-12
0.0270151,-6.05873e-09,0.164074,1.88105e-12
0.0271759,7.05742e-09,0.215463,1.85606e-12
0.0273367,-6.13049e-09,0.166018,1.88105e-12
0.0274975,-6.16637e-09,0.166989,1.88105e-12
0.0276583,7.18208e-09,0.219268,1.85606e-12
0.0278191,-6.23933e-09,0.168965,1.88105e-12
0.0279799,-6.27522e-09,0.169937,1.88105e-12
0.0281407,7.30811e-09,0.223116,1.85606e-12
0.0283015,7.34967e-09,0.224385,1.85607e-12
0.0284623,-6.38286e-09,0.172852,1.88105e-12
0.0286231,-6.41875e-09,0.173824,1.88105e-12
0.0287839,-6.45463e-09,0.174796,1.88105e-12
0.0289447,-6.49171e-09,0.1758,1.88105e-12
0.0291055,7.55881e-09,0.23077,1.85606e-12
0.0292663,-6.56347e-09,0.177743,1.88105e-12
0.0294271,-6.59935e-09,0.178715,1.88105e-12
0.0295879,-6.63524e-09,0.179687,1.88105e-12
0.0297487,7.72501e-09,0.235844,1.85606e-12
0.0299095,-6.7082e-09,0.181662,1.88105e-12
0.0300704,7.8095e-09,0.238423,1.85607e-12
0.0302312,-6.77996e-09,0.183606,1.88105e-12
0.030392,-6.81584e-09,0.184578,1.88105e-12
0.0305528,7.93415e-09,0.242229,1.85606e-12
0.0307136,-6.88761e-09,0.186521,1.88105e-12
0.0308744,-6.92349e-09,0.187493,1.88105e-12
0.0310352,-6.96057e-09,0.188497,1.88105e-12
0.031196,8.10174e-09,0.247346,1.85606e-12
0.0313568,-7.03233e-09,0.19044,1.88105e-12
0.0315176,-7.06822e-09,0.191412,1.88105e-12
0.0316784,8.22639e-09,0.251151,1.85606e-12
0.0318392,-7.13998e-09,0.193355,1.88105e-12
0.032,5.80942e-09,0.162466,-4.74834e-09
